26
 energy: -39.826943992126 gnorm: 0.000076167924 xtb: 6.6.0 (8843059)
C           -0.52370700000000        2.14281500000000       -0.12958700000000
C           -1.74992900000000        1.25485400000000       -0.31198100000000
C           -1.34123300000000       -0.18840100000000       -0.65715100000000
C           -0.38779500000000       -0.72117300000000        0.44238100000000
O            0.00833000000000       -2.01962300000000        0.24559700000000
O           -1.04175500000000       -0.67996600000000        1.66973300000000
N           -2.45522700000000       -1.10608200000000       -0.78248400000000
C            0.39678900000000        1.52282600000000        0.92243600000000
N            0.79248000000000        0.18298300000000        0.51405200000000
C            1.78540800000000        0.02649000000000       -0.42497000000000
N            2.82836100000000        0.93572200000000       -0.35412200000000
N            1.72726900000000       -0.90926300000000       -1.29416200000000
H            0.01910500000000        2.22319300000000       -1.07456800000000
H           -0.82294100000000        3.14391800000000        0.18523200000000
H           -2.38938000000000        1.64747400000000       -1.10694500000000
H           -2.32453000000000        1.23385300000000        0.61736600000000
H           -0.78313000000000       -0.20369700000000       -1.60123400000000
H           -0.71801600000000       -1.43834800000000        2.17209800000000
H           -2.86145500000000       -1.26853700000000        0.13289300000000
H           -3.16917300000000       -0.70959700000000       -1.38377800000000
H            1.27425900000000        2.14799900000000        1.08165300000000
H           -0.13906000000000        1.41980300000000        1.86854100000000
H            3.65123700000000        0.66561000000000       -0.87138600000000
H            3.03212000000000        1.33950600000000        0.54540900000000
H            2.54913000000000       -0.98078500000000       -1.88300200000000
H            0.57853000000000       -2.01984300000000       -0.55655500000000
