 Entering Gaussian System
 *********************************************
 Gaussian 98:
 frequency output generated by the xtb code
 *********************************************
                         Standard orientation:
 --------------------------------------------------------------------
  Center     Atomic     Atomic              Coordinates (Angstroms)
  Number     Number      Type              X           Y           Z
 --------------------------------------------------------------------
    1          6             0       -0.785602    2.089300    0.014084
    2          6             0       -1.994172    1.168845   -0.122388
    3          6             0       -1.618869   -0.281982    0.195554
    4          6             0       -0.397296   -0.744031   -0.639954
    5          8             0       -0.774054   -0.786657   -1.972484
    6          8             0       -0.042795   -2.029826   -0.228792
    7          7             0       -1.284432   -0.559234    1.588062
    8          6             0        0.349091    1.549551   -0.851338
    9          7             0        0.725130    0.188105   -0.491106
   10          6             0        1.626665    0.066301    0.562041
   11          7             0        2.346433   -1.105043    0.569866
   12          7             0        1.817568    1.054778    1.341966
   13          1             0       -1.044996    3.098317   -0.307125
   14          1             0       -0.438602    2.137639    1.047107
   15          1             0       -2.360645    1.200193   -1.149675
   16          1             0       -2.802945    1.485080    0.542066
   17          1             0       -2.449714   -0.942308   -0.081822
   18          1             0       -0.385016   -2.135194    0.675741
   19          1             0       -0.532794    0.058728    1.884830
   20          1             0       -2.084330   -0.372127    2.182213
   21          1             0        0.038598    1.528549   -1.899525
   22          1             0        1.240397    2.164837   -0.740295
   23          1             0        1.956989   -1.882901    0.059959
   24          1             0        2.829060   -1.334361    1.423804
   25          1             0        2.579769    0.915000    1.997675
   26          1             0       -0.065580   -1.212385   -2.470764
 --------------------------------------------------------------------
     1 basis functions        1 primitive gaussians
     1 alpha electrons        1 beta electrons
 
 Harmonic frequencies (cm**-1), IR intensities (km*mol⁻¹),
 Raman scattering activities (A**4/amu), Raman depolarization ratios,
 reduced masses (AMU), force constants (mDyne/A) and normal coordinates:
                      1                      2                      3
                        a                      a                      a 
 Frequencies --    74.8675                79.0616               125.9413
 Red. masses --    12.1406                12.0468                10.3771
 Frc consts  --     0.0000                 0.0000                 0.0000
 IR Inten    --    10.4135                 2.2887                 2.4581
 Raman Activ --     0.0000                 0.0000                 0.0000
 Depolar     --     0.0000                 0.0000                 0.0000
 Atom AN      X      Y      Z        X      Y      Z        X      Y      Z
   1   6    -0.07  -0.04   0.13    -0.13   0.02   0.05    -0.31  -0.02  -0.16
   2   6    -0.07  -0.02   0.01    -0.10   0.02  -0.18    -0.17  -0.19  -0.25
   3   6    -0.09  -0.05  -0.08    -0.12   0.04  -0.10     0.04  -0.05   0.08
   4   6     0.00   0.00   0.01    -0.00   0.01   0.09    -0.01   0.01   0.00
   5   8     0.13   0.05  -0.03     0.16  -0.16   0.06     0.01   0.21  -0.00
   6   8    -0.07  -0.02  -0.00    -0.00   0.08   0.32    -0.03  -0.06  -0.19
   7   7    -0.24  -0.17  -0.08    -0.33   0.11  -0.04     0.35   0.35   0.09
   8   6    -0.05   0.02   0.11    -0.03   0.06   0.16    -0.03   0.03   0.16
   9   7    -0.04   0.03   0.13    -0.05   0.05   0.12    -0.04   0.03   0.16
  10   6     0.12   0.06  -0.03     0.13  -0.06  -0.06     0.03  -0.08   0.07
  11   7    -0.16  -0.12   0.23     0.29   0.02  -0.48    -0.09  -0.16   0.03
  12   7     0.57   0.28  -0.40     0.16  -0.21   0.11     0.20  -0.10   0.05
  13   1    -0.02  -0.00   0.06    -0.02   0.01   0.02    -0.10  -0.03  -0.11
  14   1    -0.03  -0.04   0.04    -0.08  -0.01   0.03    -0.16   0.06  -0.02
  15   1    -0.01   0.02  -0.00     0.03   0.00  -0.07     0.01  -0.13  -0.10
  16   1    -0.03  -0.02  -0.00    -0.07   0.00  -0.10    -0.10  -0.05  -0.14
  17   1    -0.02  -0.01  -0.06    -0.02   0.00  -0.05     0.03  -0.07   0.11
  18   1    -0.05  -0.02  -0.02    -0.02   0.05   0.08     0.05  -0.03  -0.03
  19   1    -0.07  -0.06   0.01    -0.08   0.02   0.00     0.12   0.11  -0.07
  20   1    -0.08  -0.05  -0.04    -0.10   0.06  -0.04     0.13   0.15   0.06
  21   1    -0.02   0.01   0.03     0.02   0.03   0.04     0.08   0.03   0.02
  22   1    -0.02   0.01   0.04    -0.01   0.02   0.08    -0.03   0.02   0.13
  23   1    -0.10  -0.05   0.14     0.05   0.02  -0.13    -0.04  -0.03   0.00
  24   1    -0.02   0.02   0.06     0.12  -0.03  -0.16    -0.02  -0.06   0.00
  25   1     0.18   0.07  -0.14     0.08  -0.07  -0.01     0.07  -0.05  -0.00
  26   1     0.05   0.03   0.00     0.07  -0.04   0.05    -0.01   0.05  -0.01
                      4                      5                      6
                        a                      a                      a 
 Frequencies --   203.7778               237.2109               258.3451
 Red. masses --    11.8871                 9.3479                11.5024
 Frc consts  --     0.0000                 0.0000                 0.0000
 IR Inten    --     2.1008                 4.8640                 7.8248
 Raman Activ --     0.0000                 0.0000                 0.0000
 Depolar     --     0.0000                 0.0000                 0.0000
 Atom AN      X      Y      Z        X      Y      Z        X      Y      Z
   1   6     0.04  -0.04  -0.30    -0.11   0.20  -0.39    -0.07   0.04  -0.08
   2   6     0.04  -0.08  -0.10    -0.09   0.06   0.26     0.02  -0.09  -0.07
   3   6    -0.04  -0.07   0.12    -0.01   0.02   0.03     0.09  -0.04   0.05
   4   6    -0.01   0.02   0.12     0.01   0.04   0.02     0.13   0.11   0.03
   5   8    -0.29   0.39   0.20     0.31   0.05  -0.05    -0.20  -0.10   0.14
   6   8     0.08  -0.06  -0.20    -0.14   0.03   0.08     0.38   0.24   0.18
   7   7    -0.37  -0.14   0.18     0.12  -0.26  -0.05    -0.09  -0.12   0.08
   8   6     0.13  -0.11  -0.12    -0.07  -0.04  -0.19     0.06   0.22  -0.04
   9   7     0.05  -0.08   0.09    -0.06   0.08   0.18     0.11   0.19  -0.25
  10   6     0.10   0.01   0.07     0.00   0.01   0.08    -0.03  -0.04  -0.11
  11   7     0.25   0.09  -0.01    -0.10  -0.06  -0.12    -0.35  -0.22   0.03
  12   7     0.06   0.03   0.05     0.14  -0.08   0.17     0.06  -0.16  -0.01
  13   1    -0.00  -0.03  -0.15    -0.08   0.00  -0.25    -0.06   0.00  -0.03
  14   1    -0.00   0.05  -0.09    -0.00   0.21  -0.13    -0.03   0.03  -0.02
  15   1     0.01  -0.08  -0.03    -0.19   0.02   0.13     0.03  -0.06  -0.03
  16   1     0.02   0.02  -0.04     0.07   0.01   0.20    -0.01  -0.02  -0.05
  17   1    -0.00  -0.01  -0.01    -0.01   0.02  -0.01     0.06  -0.03  -0.02
  18   1    -0.02  -0.11  -0.08    -0.01   0.05   0.04     0.11   0.08   0.05
  19   1    -0.11  -0.05   0.10    -0.02  -0.03   0.03    -0.12   0.05   0.11
  20   1    -0.14  -0.03  -0.00     0.02  -0.20   0.01    -0.09  -0.18  -0.02
  21   1     0.08  -0.06  -0.05    -0.01  -0.10  -0.06     0.05   0.11  -0.02
  22   1     0.03  -0.03  -0.02    -0.03   0.01  -0.09     0.00   0.07   0.05
  23   1     0.07   0.02   0.00    -0.07   0.01  -0.04    -0.06  -0.02  -0.07
  24   1     0.09   0.03  -0.01    -0.02  -0.06  -0.05    -0.19  -0.11   0.05
  25   1     0.03   0.03   0.00     0.06  -0.06   0.02    -0.03  -0.12   0.04
  26   1    -0.08   0.19  -0.03     0.08  -0.04   0.04    -0.02   0.09  -0.02
                      7                      8                      9
                        a                      a                      a 
 Frequencies --   298.8771               320.2028               323.6729
 Red. masses --     4.1252                 8.0223                 6.3008
 Frc consts  --     0.0000                 0.0000                 0.0000
 IR Inten    --    79.2200                29.0292                27.2248
 Raman Activ --     0.0000                 0.0000                 0.0000
 Depolar     --     0.0000                 0.0000                 0.0000
 Atom AN      X      Y      Z        X      Y      Z        X      Y      Z
   1   6     0.01  -0.12   0.04     0.03  -0.01   0.04    -0.03  -0.20   0.09
   2   6    -0.06  -0.04   0.08     0.02  -0.00   0.10    -0.14  -0.05   0.09
   3   6    -0.00  -0.03   0.01     0.04  -0.03   0.03     0.02   0.01   0.02
   4   6     0.03  -0.01   0.04     0.08  -0.01   0.05     0.07   0.06  -0.02
   5   8     0.21   0.14   0.00     0.17  -0.05   0.02     0.17   0.19  -0.07
   6   8     0.00  -0.01   0.19     0.28  -0.07  -0.25    -0.10   0.02  -0.09
   7   7    -0.03   0.14   0.06    -0.31   0.19   0.17    -0.06   0.33   0.11
   8   6    -0.10  -0.09  -0.12    -0.17  -0.02  -0.20    -0.13  -0.13  -0.12
   9   7     0.04  -0.06  -0.11    -0.01   0.10   0.02     0.16  -0.05  -0.11
  10   6    -0.01  -0.03  -0.05    -0.02   0.07   0.02     0.08  -0.03  -0.03
  11   7    -0.06  -0.06  -0.06    -0.22  -0.04  -0.06     0.09  -0.05   0.06
  12   7    -0.10  -0.02  -0.06     0.11  -0.04   0.14     0.00  -0.05  -0.00
  13   1     0.01  -0.02   0.05    -0.00   0.01   0.06     0.02  -0.03   0.09
  14   1     0.04  -0.07   0.00     0.07  -0.04  -0.00     0.03  -0.11   0.01
  15   1    -0.05   0.02   0.04    -0.03   0.03   0.04    -0.08   0.02   0.04
  16   1     0.01  -0.02   0.06     0.03  -0.02   0.07    -0.01  -0.03   0.07
  17   1     0.01  -0.02   0.01     0.01  -0.00  -0.00     0.05  -0.05   0.01
  18   1    -0.12  -0.03  -0.00     0.00  -0.17  -0.12     0.17   0.11   0.06
  19   1     0.05  -0.01  -0.03     0.12  -0.15  -0.04    -0.32   0.40   0.15
  20   1     0.01   0.15   0.01    -0.03   0.45  -0.00    -0.17  -0.32  -0.05
  21   1    -0.08  -0.04  -0.02    -0.14  -0.09  -0.03    -0.11  -0.09  -0.01
  22   1    -0.03  -0.01  -0.08    -0.05   0.02  -0.18    -0.06   0.01  -0.11
  23   1    -0.06  -0.01   0.01    -0.02   0.04  -0.12     0.06  -0.00  -0.03
  24   1    -0.03  -0.02  -0.01    -0.10  -0.09  -0.01    -0.05  -0.04   0.05
  25   1    -0.05   0.00   0.01     0.03  -0.06   0.03    -0.02  -0.02   0.02
  26   1     0.39   0.72  -0.11    -0.05  -0.25   0.07    -0.06  -0.18   0.04
                     10                     11                     12
                        a                      a                      a 
 Frequencies --   337.2550               358.5286               375.8659
 Red. masses --     9.9451                 9.7778                10.1705
 Frc consts  --     0.0000                 0.0000                 0.0000
 IR Inten    --     4.3902                 8.6270                11.9064
 Raman Activ --     0.0000                 0.0000                 0.0000
 Depolar     --     0.0000                 0.0000                 0.0000
 Atom AN      X      Y      Z        X      Y      Z        X      Y      Z
   1   6    -0.16   0.06  -0.07     0.04   0.25   0.00    -0.09   0.05  -0.07
   2   6    -0.24   0.11   0.23     0.12   0.11   0.11    -0.00  -0.08   0.13
   3   6    -0.06   0.07  -0.14     0.02   0.00   0.03     0.09  -0.02   0.15
   4   6     0.00   0.05  -0.09    -0.04  -0.15  -0.03     0.06   0.03   0.03
   5   8    -0.19  -0.08  -0.05     0.01  -0.34  -0.04     0.32   0.09  -0.06
   6   8     0.27   0.17  -0.00     0.23  -0.22  -0.31    -0.18  -0.06   0.00
   7   7    -0.08   0.12  -0.15    -0.07   0.22   0.09    -0.17  -0.02   0.27
   8   6    -0.05  -0.04   0.09     0.05   0.04   0.17     0.18   0.12   0.20
   9   7     0.07  -0.07  -0.07    -0.21  -0.03   0.15     0.12  -0.03  -0.20
  10   6     0.10  -0.20  -0.05    -0.13  -0.04   0.05     0.02  -0.07  -0.17
  11   7     0.32  -0.11   0.30    -0.05   0.02  -0.07     0.02  -0.08  -0.06
  12   7    -0.00  -0.18  -0.07    -0.03   0.05  -0.09    -0.31   0.06  -0.30
  13   1    -0.03  -0.00  -0.10    -0.01   0.04  -0.09    -0.06  -0.02  -0.12
  14   1    -0.06   0.10  -0.02    -0.01   0.17   0.00    -0.07   0.12  -0.01
  15   1    -0.22   0.11   0.13     0.00   0.05   0.04    -0.04  -0.05   0.05
  16   1     0.03  -0.02   0.21     0.05   0.01   0.06     0.02  -0.02   0.06
  17   1    -0.01   0.01  -0.05    -0.03   0.04   0.03     0.04  -0.02   0.03
  18   1     0.01   0.01  -0.03     0.15  -0.10  -0.05    -0.11  -0.06  -0.03
  19   1     0.06  -0.04  -0.10    -0.20   0.25   0.09     0.02  -0.08   0.08
  20   1     0.02   0.18  -0.03    -0.12  -0.17  -0.04    -0.05   0.14   0.02
  21   1     0.01  -0.01   0.02     0.05   0.04   0.04     0.17   0.15   0.02
  22   1    -0.03   0.01   0.05     0.05  -0.04   0.09     0.05   0.01   0.23
  23   1     0.15  -0.10   0.15    -0.01  -0.00  -0.01    -0.01  -0.03   0.00
  24   1     0.07   0.09   0.12     0.05   0.02  -0.05    -0.04  -0.02   0.01
  25   1    -0.01  -0.02  -0.00     0.02   0.04  -0.05    -0.12   0.10  -0.02
  26   1    -0.05   0.02  -0.05     0.17   0.22  -0.04     0.01  -0.20   0.08
                     13                     14                     15
                        a                      a                      a 
 Frequencies --   410.5798               427.7220               438.9944
 Red. masses --     3.2040                10.7814                 7.5925
 Frc consts  --     0.0000                 0.0000                 0.0000
 IR Inten    --    26.2540                 6.1941                31.0406
 Raman Activ --     0.0000                 0.0000                 0.0000
 Depolar     --     0.0000                 0.0000                 0.0000
 Atom AN      X      Y      Z        X      Y      Z        X      Y      Z
   1   6     0.03  -0.02   0.00     0.08   0.04   0.02    -0.13   0.31   0.10
   2   6     0.04  -0.02  -0.03     0.05   0.07  -0.10     0.08   0.13  -0.16
   3   6    -0.01  -0.01   0.07    -0.17   0.01   0.10     0.16   0.16   0.10
   4   6    -0.01   0.06   0.00    -0.15   0.03   0.06     0.08  -0.01   0.05
   5   8     0.11   0.11  -0.04     0.21   0.26  -0.05     0.06  -0.06   0.05
   6   8     0.14   0.12   0.01     0.34   0.22   0.07    -0.08  -0.11  -0.08
   7   7    -0.01  -0.01   0.09     0.05  -0.10   0.04     0.03  -0.13   0.10
   8   6    -0.03   0.00  -0.07    -0.05  -0.11  -0.02    -0.33   0.04  -0.04
   9   7    -0.07   0.02  -0.01    -0.29  -0.07   0.22     0.03   0.07  -0.07
  10   6    -0.08  -0.08  -0.03    -0.13  -0.21  -0.02     0.11  -0.07  -0.13
  11   7    -0.19  -0.08  -0.00     0.09  -0.12   0.02     0.22  -0.07   0.12
  12   7    -0.06  -0.10  -0.01    -0.18  -0.03  -0.29    -0.04  -0.16  -0.02
  13   1     0.00   0.00   0.03     0.04   0.02   0.01    -0.03   0.08  -0.02
  14   1     0.03  -0.03  -0.00     0.03  -0.01   0.00    -0.05   0.11   0.03
  15   1     0.05  -0.03  -0.02     0.10  -0.02  -0.06     0.18  -0.05  -0.11
  16   1    -0.01   0.01  -0.05    -0.03   0.07  -0.11    -0.11   0.01  -0.20
  17   1    -0.00  -0.00   0.03    -0.08   0.03   0.06     0.03   0.07   0.01
  18   1     0.05   0.04   0.01     0.22   0.09   0.07    -0.25  -0.16  -0.12
  19   1    -0.01   0.00   0.03     0.04  -0.05  -0.02    -0.02  -0.04   0.11
  20   1    -0.01  -0.02   0.02     0.06  -0.03   0.07    -0.02  -0.13   0.01
  21   1    -0.03  -0.02  -0.01    -0.06  -0.09   0.01    -0.24  -0.08   0.03
  22   1    -0.00  -0.00  -0.06     0.01  -0.06  -0.08    -0.09   0.04  -0.20
  23   1    -0.16  -0.20   0.37     0.16  -0.00  -0.14     0.00  -0.08   0.16
  24   1     0.62   0.36  -0.28    -0.17  -0.11   0.09    -0.08   0.05   0.14
  25   1    -0.04  -0.04   0.02     0.00   0.10  -0.12    -0.03  -0.05   0.02
  26   1    -0.01  -0.09   0.04     0.02  -0.08   0.07     0.04   0.03   0.01
                     16                     17                     18
                        a                      a                      a 
 Frequencies --   469.9252               489.2983               520.6030
 Red. masses --    10.0608                 5.2300                10.6043
 Frc consts  --     0.0000                 0.0000                 0.0000
 IR Inten    --    49.8130               207.9294                44.4895
 Raman Activ --     0.0000                 0.0000                 0.0000
 Depolar     --     0.0000                 0.0000                 0.0000
 Atom AN      X      Y      Z        X      Y      Z        X      Y      Z
   1   6    -0.04   0.07   0.05     0.08  -0.19  -0.06     0.06   0.13   0.04
   2   6    -0.00   0.05   0.00    -0.06  -0.05   0.02     0.32  -0.25   0.10
   3   6     0.14   0.03  -0.20    -0.12  -0.03   0.08     0.14  -0.26  -0.12
   4   6     0.22  -0.06   0.09    -0.10   0.11  -0.02     0.03  -0.17  -0.15
   5   8    -0.11   0.24   0.21     0.03  -0.11  -0.13    -0.08   0.27  -0.21
   6   8     0.23  -0.12   0.17     0.18   0.24   0.01    -0.03  -0.10   0.31
   7   7     0.07   0.08  -0.26     0.10   0.07   0.07    -0.07   0.13   0.01
   8   6    -0.08  -0.15   0.12     0.14   0.03  -0.08    -0.05   0.13  -0.03
   9   7     0.09  -0.08   0.14    -0.13   0.04   0.07    -0.23   0.08   0.06
  10   6     0.05  -0.04   0.11    -0.10  -0.02   0.03    -0.15  -0.01  -0.08
  11   7    -0.13  -0.17  -0.23     0.13   0.06  -0.09     0.10   0.10   0.03
  12   7    -0.20   0.18  -0.12     0.04  -0.04   0.03     0.07  -0.13   0.02
  13   1     0.01   0.00  -0.05     0.02  -0.03   0.08    -0.10  -0.01  -0.05
  14   1    -0.04   0.07   0.02     0.06  -0.14  -0.02     0.05   0.13  -0.00
  15   1    -0.04   0.07   0.02    -0.05  -0.02   0.02     0.07  -0.02   0.04
  16   1     0.01  -0.05   0.05     0.02   0.04   0.03     0.09  -0.13   0.05
  17   1     0.05   0.00  -0.09    -0.04  -0.02   0.06     0.02  -0.05  -0.03
  18   1    -0.23  -0.13  -0.08    -0.56  -0.26  -0.27    -0.07   0.09   0.07
  19   1    -0.04   0.08  -0.05    -0.07   0.13   0.03    -0.05   0.09  -0.03
  20   1    -0.01  -0.06  -0.08     0.00  -0.15   0.04    -0.06   0.12  -0.08
  21   1    -0.06  -0.09   0.05     0.11   0.04  -0.04    -0.04   0.03  -0.00
  22   1    -0.02  -0.03  -0.03     0.04  -0.00   0.06     0.02  -0.01  -0.04
  23   1    -0.23   0.01   0.01    -0.18  -0.02   0.18    -0.00  -0.04   0.13
  24   1     0.02  -0.13  -0.11    -0.18   0.01   0.10    -0.13   0.09   0.12
  25   1    -0.07   0.17   0.01     0.04  -0.03  -0.03     0.06  -0.10  -0.06
  26   1    -0.18  -0.10  -0.02     0.02  -0.09   0.04    -0.13  -0.04  -0.11
                     19                     20                     21
                        a                      a                      a 
 Frequencies --   557.3372               561.0495               609.8755
 Red. masses --     7.9760                 9.3013                 8.6301
 Frc consts  --     0.0000                 0.0000                 0.0000
 IR Inten    --    59.6289                25.2127               118.1179
 Raman Activ --     0.0000                 0.0000                 0.0000
 Depolar     --     0.0000                 0.0000                 0.0000
 Atom AN      X      Y      Z        X      Y      Z        X      Y      Z
   1   6    -0.02   0.03  -0.00    -0.05   0.03   0.05     0.04  -0.01  -0.02
   2   6    -0.07   0.12  -0.02     0.05  -0.05   0.02     0.12  -0.19   0.03
   3   6    -0.08   0.05  -0.02     0.19   0.05   0.07     0.03  -0.14  -0.09
   4   6    -0.02  -0.16   0.14     0.02   0.07  -0.21     0.05   0.13   0.10
   5   8     0.13   0.22   0.13    -0.11  -0.09  -0.38    -0.03  -0.13   0.17
   6   8     0.13  -0.22   0.13    -0.00   0.29   0.10    -0.21   0.09  -0.09
   7   7     0.07   0.02  -0.11    -0.04  -0.02   0.19     0.03   0.06  -0.10
   8   6    -0.01  -0.00   0.02    -0.07  -0.22   0.13     0.03   0.28  -0.16
   9   7    -0.05  -0.10  -0.23     0.13  -0.15  -0.03    -0.09   0.26   0.24
  10   6    -0.18   0.03  -0.13    -0.13  -0.08   0.28     0.10  -0.15   0.03
  11   7    -0.20   0.21   0.17    -0.10   0.03   0.02     0.01  -0.20   0.16
  12   7     0.15  -0.13  -0.02     0.10   0.12  -0.01    -0.13  -0.00  -0.14
  13   1     0.03   0.02   0.00     0.00  -0.03  -0.11    -0.09   0.00   0.10
  14   1    -0.02  -0.00   0.00    -0.06   0.11   0.02     0.08  -0.06  -0.03
  15   1    -0.04   0.05   0.00     0.08  -0.06  -0.02    -0.01  -0.02   0.03
  16   1    -0.01   0.03   0.01    -0.04  -0.03  -0.06     0.06  -0.07   0.05
  17   1    -0.04   0.03   0.00     0.05   0.01   0.03     0.03  -0.06  -0.05
  18   1    -0.22  -0.20  -0.09    -0.23   0.04  -0.06    -0.17  -0.07  -0.08
  19   1    -0.02   0.05  -0.02    -0.01  -0.04   0.12    -0.03   0.08  -0.06
  20   1     0.03  -0.12   0.02    -0.06   0.02  -0.02    -0.01  -0.01  -0.04
  21   1     0.05   0.09  -0.01    -0.09  -0.10   0.06    -0.01  -0.01  -0.04
  22   1     0.02  -0.04   0.10    -0.03  -0.03  -0.05    -0.00   0.10  -0.10
  23   1     0.40   0.05  -0.27     0.21   0.09  -0.28     0.34  -0.02  -0.25
  24   1     0.14   0.13  -0.06     0.18  -0.09  -0.14     0.23  -0.04  -0.10
  25   1     0.02  -0.20  -0.02     0.04   0.04  -0.02    -0.04   0.14  -0.01
  26   1    -0.02  -0.06   0.05    -0.01   0.02  -0.10     0.03   0.03   0.04
                     22                     23                     24
                        a                      a                      a 
 Frequencies --   644.5307               667.6846               721.8446
 Red. masses --     9.3915                10.7157                10.9768
 Frc consts  --     0.0000                 0.0000                 0.0000
 IR Inten    --     8.9915                38.9185                33.6851
 Raman Activ --     0.0000                 0.0000                 0.0000
 Depolar     --     0.0000                 0.0000                 0.0000
 Atom AN      X      Y      Z        X      Y      Z        X      Y      Z
   1   6    -0.08  -0.06  -0.09     0.04   0.02   0.09    -0.02   0.14   0.03
   2   6    -0.14   0.11  -0.09     0.13  -0.16   0.08    -0.07   0.06   0.02
   3   6     0.35   0.20  -0.02    -0.11  -0.13  -0.07    -0.35  -0.12   0.08
   4   6     0.19   0.01  -0.03    -0.03   0.20   0.16    -0.07  -0.13  -0.07
   5   8    -0.00   0.00   0.09     0.09  -0.05   0.34    -0.01   0.07  -0.17
   6   8    -0.06  -0.13   0.00    -0.12   0.22  -0.17     0.10  -0.27   0.12
   7   7    -0.01  -0.05   0.05     0.00   0.03  -0.17    -0.01  -0.01   0.06
   8   6    -0.02   0.11  -0.11     0.00  -0.07   0.07     0.02   0.31  -0.16
   9   7    -0.04   0.07   0.04     0.16  -0.07  -0.24     0.23   0.07  -0.21
  10   6    -0.47  -0.23   0.27    -0.38  -0.13   0.21    -0.08  -0.15   0.37
  11   7     0.14   0.07  -0.09     0.08   0.14  -0.10     0.17  -0.15  -0.03
  12   7     0.06  -0.04  -0.14     0.12  -0.02  -0.10     0.10   0.16  -0.03
  13   1     0.05   0.07   0.19    -0.06  -0.08  -0.17    -0.06   0.04   0.07
  14   1     0.01  -0.25  -0.02    -0.03   0.23   0.03     0.03   0.01  -0.00
  15   1    -0.14   0.02   0.01     0.11  -0.02  -0.01     0.03   0.01  -0.01
  16   1     0.02  -0.02   0.07    -0.01  -0.05  -0.04    -0.04   0.07  -0.05
  17   1     0.12   0.03  -0.02     0.00  -0.06  -0.07    -0.13  -0.01   0.06
  18   1     0.08   0.04   0.05     0.05  -0.01  -0.02     0.01  -0.03   0.03
  19   1     0.04  -0.13   0.15    -0.01   0.07  -0.14    -0.00   0.05  -0.10
  20   1    -0.05   0.03  -0.06     0.03   0.04  -0.01     0.07  -0.03   0.11
  21   1     0.09   0.03  -0.05    -0.10  -0.04   0.05    -0.04   0.06  -0.03
  22   1    -0.01   0.03   0.07     0.01  -0.01  -0.09    -0.01   0.11  -0.09
  23   1     0.02  -0.05   0.07    -0.06  -0.01   0.09    -0.06   0.01  -0.01
  24   1    -0.04   0.04   0.03    -0.07   0.04   0.04     0.09  -0.15  -0.06
  25   1     0.10   0.00  -0.13     0.01  -0.10  -0.02    -0.10   0.06   0.14
  26   1    -0.03   0.02  -0.03     0.07  -0.01   0.15    -0.03  -0.03  -0.04
                     25                     26                     27
                        a                      a                      a 
 Frequencies --   782.7245               860.7380               879.4467
 Red. masses --     3.1275                 7.1305                 6.8078
 Frc consts  --     0.0000                 0.0000                 0.0000
 IR Inten    --    53.5692                15.4573                50.3594
 Raman Activ --     0.0000                 0.0000                 0.0000
 Depolar     --     0.0000                 0.0000                 0.0000
 Atom AN      X      Y      Z        X      Y      Z        X      Y      Z
   1   6    -0.01   0.02   0.03     0.16  -0.01   0.02    -0.04   0.19  -0.06
   2   6    -0.02   0.00   0.02    -0.22   0.06  -0.22     0.20  -0.08  -0.34
   3   6    -0.08  -0.02   0.02    -0.15  -0.16  -0.00     0.11  -0.10  -0.07
   4   6    -0.00  -0.01  -0.00     0.22   0.04  -0.05    -0.36  -0.08   0.07
   5   8     0.01   0.01   0.00    -0.03  -0.04  -0.04     0.02   0.05   0.03
   6   8     0.02  -0.04   0.01    -0.04  -0.08   0.01     0.01   0.15  -0.01
   7   7    -0.01   0.01  -0.01     0.02  -0.05   0.19     0.04  -0.02   0.06
   8   6     0.01   0.07  -0.03     0.27   0.05   0.22    -0.05   0.07   0.12
   9   7     0.14  -0.02  -0.15     0.10   0.18   0.14    -0.01  -0.16  -0.18
  10   6     0.02   0.01   0.01    -0.08  -0.01  -0.10     0.05   0.03   0.05
  11   7    -0.06  -0.03   0.04    -0.09   0.11  -0.05     0.05  -0.05   0.03
  12   7    -0.17  -0.12   0.23    -0.05  -0.09  -0.10     0.03   0.06   0.07
  13   1    -0.02  -0.01  -0.02     0.13  -0.01  -0.10     0.04   0.11   0.15
  14   1     0.00   0.04   0.00    -0.18   0.05   0.08    -0.18  -0.15   0.05
  15   1     0.03  -0.00  -0.01    -0.23   0.08   0.01    -0.34   0.07   0.06
  16   1    -0.02   0.01  -0.02     0.08   0.08   0.08     0.29  -0.13   0.26
  17   1    -0.02  -0.01  -0.00     0.03  -0.13  -0.00    -0.03   0.01   0.07
  18   1    -0.01  -0.02  -0.00    -0.03   0.04   0.00     0.02  -0.05  -0.01
  19   1    -0.00   0.01  -0.03     0.01   0.01  -0.02     0.00  -0.03   0.08
  20   1     0.02  -0.02   0.03     0.05  -0.02   0.11    -0.03  -0.02  -0.03
  21   1    -0.01   0.03  -0.00    -0.25  -0.19   0.15    -0.13   0.02   0.07
  22   1    -0.01   0.04  -0.02     0.09   0.05  -0.34     0.03  -0.03  -0.09
  23   1    -0.02  -0.00   0.00     0.07  -0.03   0.01    -0.08   0.04  -0.01
  24   1     0.02   0.01  -0.01    -0.06   0.13   0.04     0.04  -0.09  -0.03
  25   1     0.58   0.38  -0.58    -0.00  -0.06  -0.05     0.02   0.03   0.01
  26   1     0.00  -0.00   0.01    -0.06   0.02  -0.11     0.09  -0.03   0.16
                     28                     29                     30
                        a                      a                      a 
 Frequencies --   909.3635               940.9886               983.8420
 Red. masses --     8.2296                 8.2358                 6.8569
 Frc consts  --     0.0000                 0.0000                 0.0000
 IR Inten    --    19.6187                 8.5660                66.4728
 Raman Activ --     0.0000                 0.0000                 0.0000
 Depolar     --     0.0000                 0.0000                 0.0000
 Atom AN      X      Y      Z        X      Y      Z        X      Y      Z
   1   6     0.00   0.45   0.06    -0.03   0.10   0.18    -0.15   0.30  -0.02
   2   6    -0.26   0.11  -0.01    -0.32  -0.15   0.12     0.10  -0.20   0.06
   3   6     0.01  -0.35  -0.12     0.21   0.15   0.03    -0.14   0.04   0.17
   4   6     0.12   0.03   0.01    -0.29   0.01   0.04     0.23  -0.06  -0.04
   5   8     0.01  -0.01   0.07    -0.02   0.03  -0.05     0.03  -0.03   0.02
   6   8    -0.06   0.15  -0.04     0.06  -0.08   0.06    -0.02   0.08  -0.07
   7   7     0.09  -0.15   0.21     0.01   0.04  -0.19    -0.19   0.26  -0.18
   8   6     0.05  -0.13  -0.14     0.45   0.09  -0.15     0.11  -0.08  -0.02
   9   7    -0.05  -0.18  -0.02    -0.05  -0.08   0.03     0.10  -0.14   0.07
  10   6     0.04   0.01  -0.01     0.02   0.02  -0.03    -0.00  -0.01  -0.04
  11   7    -0.01   0.03   0.02    -0.00   0.01   0.01    -0.06   0.09  -0.02
  12   7     0.00  -0.00   0.02    -0.01   0.00   0.00    -0.02  -0.04  -0.05
  13   1     0.11   0.21   0.20    -0.09  -0.00   0.01    -0.10   0.14   0.25
  14   1     0.13  -0.07  -0.02    -0.05   0.09   0.06    -0.00  -0.16  -0.00
  15   1     0.02   0.05  -0.03     0.04  -0.12  -0.01    -0.03  -0.15   0.03
  16   1    -0.17  -0.07  -0.07    -0.22  -0.15  -0.07     0.01  -0.12   0.04
  17   1     0.10  -0.19  -0.10     0.07  -0.02   0.08    -0.07   0.05   0.04
  18   1    -0.03   0.03  -0.01     0.05  -0.10   0.01    -0.04   0.13  -0.01
  19   1    -0.09   0.20  -0.11     0.01  -0.09   0.14     0.16  -0.23  -0.02
  20   1    -0.02   0.17  -0.05    -0.09   0.01  -0.18     0.13  -0.30   0.29
  21   1     0.14   0.02  -0.07    -0.07  -0.08   0.01     0.07  -0.11  -0.02
  22   1     0.08  -0.15   0.08     0.18  -0.02  -0.29     0.07  -0.08  -0.04
  23   1    -0.03   0.03  -0.01    -0.03   0.03  -0.01    -0.01   0.02   0.00
  24   1     0.01  -0.02  -0.01     0.01  -0.02  -0.01    -0.04   0.04   0.01
  25   1     0.01  -0.01  -0.01    -0.01  -0.03   0.00    -0.01  -0.05  -0.01
  26   1    -0.02   0.00  -0.02     0.08  -0.01   0.13    -0.07   0.02  -0.13
                     31                     32                     33
                        a                      a                      a 
 Frequencies --  1011.9555              1026.7174              1039.6627
 Red. masses --     5.5683                 6.3868                 8.3726
 Frc consts  --     0.0000                 0.0000                 0.0000
 IR Inten    --    13.2562                20.8865               205.2499
 Raman Activ --     0.0000                 0.0000                 0.0000
 Depolar     --     0.0000                 0.0000                 0.0000
 Atom AN      X      Y      Z        X      Y      Z        X      Y      Z
   1   6    -0.17   0.07  -0.21     0.02   0.02   0.07     0.18   0.12  -0.06
   2   6     0.15   0.01   0.16    -0.07   0.01  -0.02    -0.06  -0.06  -0.02
   3   6    -0.01   0.05   0.10     0.02  -0.05  -0.05     0.07  -0.15   0.11
   4   6    -0.14  -0.02   0.03    -0.11  -0.33  -0.11    -0.05   0.37   0.25
   5   8    -0.04   0.00  -0.08     0.05   0.02   0.15    -0.15   0.00  -0.33
   6   8     0.02  -0.03   0.04    -0.02   0.16  -0.06     0.01  -0.19   0.11
   7   7     0.05  -0.16  -0.09     0.00   0.04   0.03    -0.07   0.13  -0.16
   8   6     0.06  -0.05   0.19     0.03  -0.07  -0.05    -0.16  -0.10   0.09
   9   7     0.28   0.06   0.09     0.09   0.09  -0.02     0.01   0.10  -0.05
  10   6     0.01  -0.04  -0.01    -0.05   0.08   0.04     0.01  -0.01   0.04
  11   7    -0.13   0.09  -0.11    -0.07  -0.25  -0.26    -0.03  -0.05  -0.09
  12   7    -0.01  -0.06  -0.06     0.07   0.17   0.14     0.04   0.01   0.04
  13   1     0.01   0.12   0.22     0.03  -0.01  -0.05     0.23   0.07  -0.03
  14   1    -0.03  -0.24  -0.04     0.03   0.06   0.01     0.09  -0.02  -0.03
  15   1     0.04  -0.26   0.03     0.01   0.09  -0.01    -0.02  -0.06  -0.00
  16   1     0.01   0.10  -0.04    -0.06  -0.10   0.00    -0.01  -0.05   0.01
  17   1    -0.10   0.15  -0.01    -0.07   0.02   0.12     0.18  -0.20  -0.07
  18   1     0.03  -0.09   0.01    -0.07   0.08  -0.03     0.12  -0.21   0.04
  19   1    -0.16   0.27  -0.17     0.03  -0.08   0.10     0.08  -0.12  -0.01
  20   1    -0.06   0.24  -0.19    -0.02  -0.04  -0.01     0.04  -0.15   0.08
  21   1     0.02  -0.23   0.05     0.05   0.02  -0.03     0.02   0.03   0.00
  22   1    -0.07   0.12  -0.07    -0.01  -0.00   0.03    -0.04  -0.04   0.11
  23   1     0.10  -0.07   0.03     0.38  -0.35   0.09     0.12  -0.11   0.03
  24   1    -0.11   0.19   0.06    -0.17   0.31   0.13    -0.08   0.14   0.06
  25   1    -0.01   0.04   0.01    -0.03   0.22   0.13    -0.02   0.14   0.07
  26   1     0.04   0.00   0.04    -0.02   0.01  -0.01     0.13  -0.03   0.17
                     34                     35                     36
                        a                      a                      a 
 Frequencies --  1048.6387              1070.5006              1108.0438
 Red. masses --     7.2581                 6.3366                 9.6115
 Frc consts  --     0.0000                 0.0000                 0.0000
 IR Inten    --    29.8311                65.8287               137.0215
 Raman Activ --     0.0000                 0.0000                 0.0000
 Depolar     --     0.0000                 0.0000                 0.0000
 Atom AN      X      Y      Z        X      Y      Z        X      Y      Z
   1   6     0.24   0.05  -0.18     0.02   0.04  -0.04     0.06  -0.05  -0.05
   2   6    -0.15  -0.01   0.12    -0.02   0.05  -0.02    -0.08   0.04   0.02
   3   6     0.04  -0.18   0.23    -0.00  -0.17  -0.14     0.11   0.01   0.01
   4   6     0.01  -0.15  -0.20    -0.27  -0.04  -0.17     0.02  -0.46   0.47
   5   8     0.09   0.00   0.20    -0.01   0.02   0.10    -0.02   0.00  -0.24
   6   8    -0.02   0.07  -0.04     0.03  -0.04   0.02    -0.10   0.32  -0.06
   7   7    -0.03   0.09  -0.28     0.03   0.10   0.05    -0.04   0.01  -0.03
   8   6    -0.14   0.06   0.19    -0.05  -0.05   0.09    -0.01   0.15   0.05
   9   7    -0.09   0.08  -0.09     0.30   0.17   0.14     0.10  -0.01   0.05
  10   6    -0.04   0.04  -0.01     0.03  -0.09  -0.03    -0.10   0.07  -0.05
  11   7     0.09  -0.07   0.07    -0.06   0.19   0.06     0.06  -0.07   0.02
  12   7    -0.01   0.05   0.03    -0.05  -0.15  -0.15    -0.07   0.08  -0.01
  13   1     0.33   0.08  -0.05     0.03   0.02  -0.01     0.12   0.00  -0.05
  14   1     0.00  -0.08  -0.02     0.28   0.01  -0.10     0.09   0.01  -0.04
  15   1    -0.01  -0.30   0.01     0.09   0.25  -0.03     0.03   0.03  -0.01
  16   1    -0.04   0.20  -0.07    -0.08  -0.17  -0.01    -0.08  -0.11  -0.01
  17   1    -0.01  -0.10   0.23    -0.05  -0.07   0.15     0.05   0.02  -0.10
  18   1    -0.08   0.11  -0.02    -0.03   0.03  -0.00     0.12  -0.22   0.01
  19   1     0.01  -0.08   0.08     0.08  -0.18   0.21     0.01   0.02  -0.09
  20   1    -0.10   0.03  -0.20    -0.04  -0.09  -0.02     0.06  -0.04   0.09
  21   1    -0.12   0.07   0.07     0.16  -0.22  -0.02     0.01  -0.06   0.01
  22   1    -0.02   0.01  -0.00    -0.19   0.24   0.07    -0.09   0.16  -0.01
  23   1    -0.06   0.04  -0.01    -0.12   0.13  -0.03    -0.04  -0.00   0.03
  24   1     0.08  -0.14  -0.05     0.02  -0.02  -0.03     0.04  -0.09  -0.03
  25   1     0.02  -0.07  -0.03    -0.01  -0.08  -0.05     0.04  -0.22  -0.11
  26   1    -0.05   0.01  -0.06     0.06  -0.01   0.12    -0.06   0.02  -0.15
                     37                     38                     39
                        a                      a                      a 
 Frequencies --  1110.9853              1125.5543              1137.4281
 Red. masses --     5.3757                 6.5431                 7.2447
 Frc consts  --     0.0000                 0.0000                 0.0000
 IR Inten    --    47.3700                18.9711                 9.6439
 Raman Activ --     0.0000                 0.0000                 0.0000
 Depolar     --     0.0000                 0.0000                 0.0000
 Atom AN      X      Y      Z        X      Y      Z        X      Y      Z
   1   6     0.08   0.02  -0.05     0.19   0.06   0.10     0.05  -0.11  -0.16
   2   6    -0.05  -0.17   0.06    -0.10  -0.23  -0.12    -0.07   0.10   0.12
   3   6     0.05   0.20  -0.12    -0.10   0.21   0.04     0.20  -0.04  -0.09
   4   6    -0.14   0.03  -0.21     0.09  -0.08   0.14    -0.12  -0.19  -0.07
   5   8     0.00   0.02   0.11     0.03  -0.02  -0.04     0.00   0.03   0.07
   6   8     0.06  -0.13   0.01    -0.03   0.07  -0.03     0.03   0.07  -0.05
   7   7    -0.07  -0.05   0.18     0.04  -0.10  -0.03    -0.09   0.06   0.08
   8   6     0.03  -0.11   0.07    -0.11   0.01  -0.08    -0.04   0.29   0.08
   9   7    -0.06   0.23  -0.06     0.02   0.07   0.01    -0.08  -0.28   0.02
  10   6    -0.07   0.06  -0.04     0.12  -0.17   0.09     0.14  -0.13   0.07
  11   7     0.09  -0.12   0.04    -0.10   0.24   0.02    -0.12   0.20  -0.02
  12   7    -0.03   0.09   0.04     0.07  -0.26  -0.10     0.10  -0.18  -0.03
  13   1     0.33   0.06  -0.06     0.19   0.01  -0.11     0.01  -0.02  -0.01
  14   1    -0.01  -0.05  -0.00     0.07   0.09   0.02     0.02  -0.05  -0.04
  15   1    -0.02  -0.15   0.01    -0.14  -0.08   0.01     0.08  -0.07  -0.01
  16   1    -0.14  -0.36   0.00    -0.04  -0.28   0.07    -0.05   0.12  -0.07
  17   1    -0.05   0.23  -0.26    -0.18   0.18   0.19     0.17  -0.05  -0.28
  18   1    -0.07   0.11  -0.01     0.03  -0.03   0.00    -0.06   0.14  -0.02
  19   1    -0.02   0.13  -0.22    -0.07   0.07   0.01     0.05  -0.01  -0.12
  20   1     0.14  -0.04   0.27    -0.04   0.10  -0.09     0.09  -0.11   0.21
  21   1    -0.01  -0.01   0.02    -0.01   0.15  -0.03    -0.14   0.07   0.06
  22   1    -0.02   0.02  -0.01     0.00  -0.05   0.08    -0.01   0.09  -0.09
  23   1     0.01  -0.01  -0.01    -0.10   0.12  -0.02    -0.05   0.07  -0.01
  24   1     0.06  -0.10  -0.03    -0.03   0.07   0.01    -0.07   0.10   0.03
  25   1     0.03  -0.11  -0.06    -0.06   0.33   0.13    -0.07   0.33   0.16
  26   1     0.06  -0.01   0.12    -0.09   0.01  -0.16     0.06  -0.02   0.11
                     40                     41                     42
                        a                      a                      a 
 Frequencies --  1152.8191              1176.6272              1194.1798
 Red. masses --     8.4388                 7.6159                 6.8073
 Frc consts  --     0.0000                 0.0000                 0.0000
 IR Inten    --    44.4493                18.8333                25.4930
 Raman Activ --     0.0000                 0.0000                 0.0000
 Depolar     --     0.0000                 0.0000                 0.0000
 Atom AN      X      Y      Z        X      Y      Z        X      Y      Z
   1   6     0.24   0.07  -0.16     0.11   0.03   0.22    -0.05  -0.02   0.00
   2   6    -0.13  -0.27  -0.04    -0.08  -0.02  -0.25     0.10   0.03   0.12
   3   6    -0.18   0.27  -0.18     0.14   0.05   0.40    -0.12  -0.09  -0.17
   4   6     0.06   0.14  -0.02    -0.03  -0.03  -0.14     0.08   0.21   0.02
   5   8     0.02  -0.01   0.03    -0.05   0.01  -0.00    -0.02  -0.02  -0.01
   6   8     0.04  -0.06   0.01     0.05  -0.03  -0.02     0.02  -0.04   0.01
   7   7     0.09  -0.05   0.11    -0.12  -0.09  -0.17     0.08   0.05   0.06
   8   6    -0.14   0.22   0.27    -0.10   0.11  -0.16    -0.03   0.25  -0.20
   9   7    -0.01  -0.31  -0.01     0.16  -0.20   0.21     0.07  -0.41   0.19
  10   6    -0.00   0.06  -0.02     0.03  -0.01  -0.00     0.06  -0.00   0.02
  11   7    -0.01  -0.09  -0.06    -0.05   0.01  -0.05    -0.06   0.00  -0.07
  12   7    -0.02   0.14   0.07    -0.07   0.06  -0.03    -0.06   0.08  -0.01
  13   1    -0.22  -0.01   0.09    -0.06  -0.05  -0.06     0.39   0.06  -0.12
  14   1     0.43   0.00  -0.16     0.12   0.17   0.02    -0.30  -0.04   0.10
  15   1    -0.04  -0.04  -0.01    -0.18  -0.01  -0.00     0.06  -0.06   0.01
  16   1    -0.01  -0.02  -0.01     0.10   0.03   0.08    -0.06  -0.14  -0.01
  17   1     0.01  -0.02   0.00     0.10  -0.04   0.03    -0.14   0.08   0.06
  18   1     0.01  -0.01  -0.00    -0.10   0.20  -0.02     0.00   0.02   0.00
  19   1    -0.01  -0.02   0.13    -0.08   0.16  -0.27     0.03  -0.08   0.15
  20   1    -0.03   0.06  -0.05     0.05   0.06   0.05    -0.05  -0.01  -0.07
  21   1    -0.08  -0.05   0.08     0.09   0.03  -0.06    -0.04   0.12  -0.04
  22   1     0.01   0.01  -0.06    -0.10   0.11   0.10    -0.13   0.22   0.03
  23   1     0.08  -0.08   0.01     0.04  -0.03   0.00     0.07  -0.06   0.01
  24   1    -0.03   0.05   0.02    -0.03   0.05   0.01    -0.06   0.10   0.03
  25   1     0.02  -0.12  -0.04     0.02  -0.21  -0.09     0.02  -0.20  -0.08
  26   1    -0.04   0.01  -0.06     0.12  -0.02   0.19    -0.00  -0.00  -0.00
                     43                     44                     45
                        a                      a                      a 
 Frequencies --  1221.9441              1226.3258              1271.2565
 Red. masses --     5.3963                 6.1968                 4.3817
 Frc consts  --     0.0000                 0.0000                 0.0000
 IR Inten    --   196.1497                50.9041                78.3997
 Raman Activ --     0.0000                 0.0000                 0.0000
 Depolar     --     0.0000                 0.0000                 0.0000
 Atom AN      X      Y      Z        X      Y      Z        X      Y      Z
   1   6    -0.11  -0.11  -0.16    -0.10  -0.07  -0.06     0.06  -0.07  -0.18
   2   6     0.02   0.11   0.02     0.05   0.10  -0.05    -0.06   0.07   0.05
   3   6     0.03  -0.11   0.16     0.14  -0.07   0.28     0.12  -0.11  -0.01
   4   6     0.28   0.02   0.21    -0.10   0.25  -0.24    -0.03  -0.01  -0.14
   5   8    -0.12   0.02  -0.13     0.18  -0.05   0.14    -0.03   0.01   0.01
   6   8     0.03  -0.06  -0.09    -0.05   0.01   0.10    -0.04   0.07   0.05
   7   7    -0.02  -0.03  -0.10    -0.10  -0.04  -0.10    -0.06   0.00  -0.00
   8   6     0.08   0.08   0.15     0.08   0.08   0.07    -0.14   0.03   0.01
   9   7    -0.17  -0.06  -0.13    -0.15  -0.17  -0.07     0.24   0.08   0.18
  10   6    -0.02   0.02  -0.01    -0.00   0.01  -0.02     0.12  -0.08   0.09
  11   7     0.02  -0.02   0.01     0.01  -0.03  -0.01    -0.05   0.04  -0.04
  12   7     0.03   0.02   0.04     0.04   0.02   0.06    -0.10   0.03  -0.07
  13   1     0.03   0.00   0.01     0.07   0.00  -0.02    -0.13  -0.03   0.05
  14   1     0.10  -0.06  -0.08     0.09  -0.02  -0.05    -0.02  -0.06  -0.03
  15   1     0.12   0.32  -0.03     0.06   0.26  -0.02     0.08   0.12  -0.02
  16   1    -0.12  -0.28   0.00    -0.06  -0.24   0.03    -0.09  -0.09  -0.03
  17   1    -0.17   0.13   0.21     0.02   0.00   0.08    -0.13   0.13   0.12
  18   1    -0.16   0.37  -0.02     0.14  -0.32   0.02     0.10  -0.20   0.02
  19   1    -0.04   0.04  -0.04    -0.03   0.08  -0.18    -0.00   0.02  -0.08
  20   1    -0.02   0.06  -0.06     0.04  -0.02   0.06     0.03  -0.04   0.07
  21   1    -0.07  -0.07   0.06    -0.02  -0.08   0.03    -0.23   0.38   0.05
  22   1     0.07  -0.03  -0.10    -0.06   0.14  -0.07     0.27  -0.43  -0.02
  23   1     0.01  -0.01   0.01     0.01  -0.01  -0.01     0.01   0.01  -0.01
  24   1     0.00  -0.04  -0.01    -0.01   0.03   0.01    -0.03   0.10   0.02
  25   1    -0.00   0.06   0.03    -0.01   0.09   0.06     0.03  -0.22  -0.12
  26   1     0.16  -0.02   0.26    -0.22   0.03  -0.38     0.04  -0.01   0.07
                     46                     47                     48
                        a                      a                      a 
 Frequencies --  1290.3936              1313.1841              1320.9856
 Red. masses --     4.5699                 5.4041                 4.5522
 Frc consts  --     0.0000                 0.0000                 0.0000
 IR Inten    --    27.6998                41.8607                 9.4749
 Raman Activ --     0.0000                 0.0000                 0.0000
 Depolar     --     0.0000                 0.0000                 0.0000
 Atom AN      X      Y      Z        X      Y      Z        X      Y      Z
   1   6     0.02   0.04  -0.16     0.07   0.05  -0.03     0.39   0.04  -0.13
   2   6     0.12  -0.15   0.09     0.00  -0.14   0.07    -0.04   0.23   0.03
   3   6    -0.21   0.32   0.14    -0.04   0.19  -0.13     0.08  -0.05  -0.11
   4   6    -0.14  -0.11   0.05     0.30  -0.13  -0.27    -0.03   0.08   0.10
   5   8     0.04  -0.02  -0.00    -0.13   0.07   0.02     0.02  -0.02  -0.01
   6   8     0.06  -0.05  -0.05    -0.09   0.13   0.08     0.02  -0.04  -0.02
   7   7     0.03  -0.07  -0.05    -0.08  -0.08   0.02    -0.06  -0.02   0.01
   8   6    -0.02  -0.04  -0.02    -0.01   0.03  -0.01     0.04  -0.19  -0.01
   9   7     0.07   0.07   0.05    -0.06  -0.07   0.01    -0.05   0.00  -0.02
  10   6     0.04  -0.04   0.04    -0.09   0.08  -0.07    -0.01   0.01   0.01
  11   7    -0.02   0.02  -0.01     0.02  -0.01   0.03     0.01  -0.01   0.00
  12   7    -0.03   0.00  -0.03     0.04  -0.05   0.02     0.00  -0.00   0.00
  13   1     0.08   0.05   0.04     0.04   0.03   0.02    -0.44  -0.06   0.18
  14   1    -0.24  -0.11   0.04    -0.17  -0.03   0.06    -0.27  -0.00   0.09
  15   1     0.16   0.33  -0.01     0.07   0.11  -0.00    -0.04  -0.19   0.01
  16   1    -0.03  -0.15   0.00     0.01   0.07  -0.02    -0.14  -0.24  -0.01
  17   1     0.38  -0.45  -0.03     0.02  -0.16   0.37    -0.02  -0.06   0.21
  18   1    -0.09   0.17  -0.02     0.15  -0.36   0.03    -0.04   0.09  -0.01
  19   1    -0.05   0.04   0.03    -0.05   0.07  -0.09    -0.01   0.03  -0.07
  20   1    -0.01   0.09  -0.05     0.07   0.00   0.13     0.04  -0.02   0.07
  21   1    -0.09   0.14   0.01     0.07  -0.10  -0.02    -0.11   0.11   0.03
  22   1     0.02  -0.04   0.01    -0.06   0.09   0.02    -0.24   0.28   0.12
  23   1    -0.00   0.01  -0.00    -0.00  -0.00   0.02     0.01  -0.01   0.00
  24   1    -0.01   0.03   0.01     0.03  -0.08  -0.03     0.00  -0.01  -0.00
  25   1     0.01  -0.06  -0.03    -0.02   0.12   0.06     0.00   0.00  -0.00
  26   1    -0.05   0.01  -0.10     0.20  -0.02   0.35    -0.04   0.01  -0.07
                     49                     50                     51
                        a                      a                      a 
 Frequencies --  1337.1580              1337.6585              1347.7315
 Red. masses --     4.5204                 4.3790                 5.5526
 Frc consts  --     0.0000                 0.0000                 0.0000
 IR Inten    --    11.2221                19.6862                 5.4724
 Raman Activ --     0.0000                 0.0000                 0.0000
 Depolar     --     0.0000                 0.0000                 0.0000
 Atom AN      X      Y      Z        X      Y      Z        X      Y      Z
   1   6    -0.36  -0.02   0.08    -0.01  -0.10   0.06    -0.01  -0.12   0.03
   2   6     0.15   0.14  -0.03     0.04   0.12   0.04     0.18   0.39  -0.06
   3   6    -0.01   0.08  -0.19     0.13   0.05  -0.25    -0.27   0.00   0.14
   4   6     0.01  -0.01   0.05    -0.15   0.08   0.14     0.11  -0.10  -0.17
   5   8    -0.01   0.00  -0.01     0.05  -0.02   0.00    -0.04   0.02   0.02
   6   8     0.00  -0.01  -0.01     0.04  -0.06  -0.03    -0.03   0.06   0.03
   7   7    -0.06  -0.04   0.01    -0.11  -0.06   0.03     0.09   0.02  -0.01
   8   6     0.23  -0.17  -0.01    -0.18   0.23   0.03    -0.07   0.13   0.02
   9   7    -0.04   0.02   0.02     0.01   0.02  -0.08     0.05  -0.02   0.04
  10   6     0.03  -0.03   0.03     0.08  -0.06   0.05    -0.06   0.05  -0.06
  11   7    -0.01   0.01  -0.01    -0.02   0.00  -0.01     0.01  -0.00   0.01
  12   7    -0.01   0.02  -0.00    -0.02   0.05   0.01     0.02  -0.03   0.00
  13   1     0.13   0.02  -0.07     0.08  -0.03  -0.06    -0.08  -0.07  -0.06
  14   1     0.40   0.01  -0.15    -0.07   0.02   0.04     0.05   0.00  -0.01
  15   1    -0.07  -0.25   0.02     0.02  -0.18   0.00    -0.13  -0.34   0.03
  16   1     0.05   0.01   0.02     0.01  -0.02   0.02    -0.11  -0.44   0.06
  17   1     0.09  -0.25   0.30     0.04  -0.19   0.41     0.14  -0.17  -0.20
  18   1    -0.01   0.02  -0.00    -0.06   0.13  -0.01     0.05  -0.13   0.01
  19   1    -0.03   0.03  -0.04    -0.04   0.07  -0.13     0.01  -0.04   0.12
  20   1     0.06   0.00   0.11     0.08  -0.02   0.15    -0.06   0.04  -0.11
  21   1    -0.27   0.34   0.09     0.28  -0.36  -0.08     0.05  -0.11  -0.01
  22   1    -0.06   0.14  -0.04     0.19  -0.28  -0.05     0.12  -0.16  -0.01
  23   1     0.00  -0.00  -0.00    -0.00   0.01  -0.02     0.00  -0.00   0.01
  24   1    -0.01   0.02   0.01    -0.02   0.06   0.02     0.02  -0.05  -0.02
  25   1     0.01  -0.04  -0.02     0.02  -0.06  -0.03    -0.01   0.06   0.03
  26   1     0.00  -0.01   0.01    -0.08   0.02  -0.15     0.07  -0.01   0.13
                     52                     53                     54
                        a                      a                      a 
 Frequencies --  1385.5915              1436.0174              1473.6506
 Red. masses --     8.8133                 1.9647                 1.9131
 Frc consts  --     0.0000                 0.0000                 0.0000
 IR Inten    --   376.2215                 3.4138                 0.5138
 Raman Activ --     0.0000                 0.0000                 0.0000
 Depolar     --     0.0000                 0.0000                 0.0000
 Atom AN      X      Y      Z        X      Y      Z        X      Y      Z
   1   6    -0.03  -0.00  -0.02     0.01  -0.00   0.01     0.03   0.08   0.07
   2   6    -0.00  -0.01   0.01    -0.03   0.03  -0.01     0.24  -0.06   0.08
   3   6     0.06  -0.03  -0.06    -0.01  -0.00   0.01     0.03  -0.01  -0.00
   4   6    -0.14   0.12   0.08     0.01   0.01   0.01    -0.01   0.01   0.02
   5   8     0.02  -0.04  -0.02    -0.00  -0.00  -0.01     0.00  -0.00  -0.01
   6   8     0.05  -0.06  -0.01     0.00  -0.00  -0.00     0.00  -0.00  -0.00
   7   7    -0.02  -0.02   0.01     0.00  -0.00  -0.00    -0.01  -0.00  -0.01
   8   6    -0.05   0.07  -0.05    -0.15  -0.12   0.20    -0.03   0.01   0.02
   9   7     0.32  -0.12   0.26     0.01  -0.03   0.04     0.00  -0.01   0.00
  10   6    -0.40   0.33  -0.30    -0.02   0.05   0.01     0.00  -0.00   0.00
  11   7     0.07  -0.02   0.05    -0.01   0.02  -0.00    -0.01   0.01  -0.00
  12   7     0.08  -0.19  -0.02    -0.00  -0.04  -0.03    -0.00   0.00  -0.00
  13   1     0.02   0.01   0.01    -0.03  -0.02  -0.02    -0.07  -0.10  -0.24
  14   1     0.01   0.01  -0.01    -0.02  -0.03   0.01     0.02  -0.27   0.01
  15   1     0.02   0.01  -0.00     0.08  -0.04  -0.03    -0.55   0.17   0.21
  16   1     0.01   0.03  -0.01     0.05  -0.04   0.08    -0.36   0.10  -0.49
  17   1    -0.03   0.00   0.08    -0.00  -0.00  -0.00     0.00  -0.00   0.02
  18   1    -0.06   0.10  -0.01    -0.00   0.00  -0.00    -0.00   0.01  -0.00
  19   1    -0.01   0.03  -0.04    -0.00   0.00  -0.00    -0.01   0.01  -0.01
  20   1     0.01  -0.00   0.03    -0.00   0.00  -0.00     0.01  -0.00   0.02
  21   1    -0.10   0.10   0.02     0.51   0.42  -0.15     0.07   0.03  -0.02
  22   1     0.07  -0.12   0.06    -0.03   0.12  -0.64     0.00   0.01  -0.07
  23   1     0.08  -0.12   0.12     0.04  -0.04   0.04     0.01  -0.01   0.01
  24   1     0.08  -0.33  -0.11     0.00  -0.07  -0.02    -0.00  -0.02  -0.01
  25   1    -0.06   0.27   0.12    -0.01   0.01   0.00    -0.00  -0.00  -0.00
  26   1    -0.05   0.01  -0.09    -0.00  -0.00   0.00    -0.01  -0.00  -0.01
                     55                     56                     57
                        a                      a                      a 
 Frequencies --  1478.8488              1486.7004              1555.8064
 Red. masses --     4.4760                 2.0073                 2.1073
 Frc consts  --     0.0000                 0.0000                 0.0000
 IR Inten    --   218.5228                 3.6245                41.5828
 Raman Activ --     0.0000                 0.0000                 0.0000
 Depolar     --     0.0000                 0.0000                 0.0000
 Atom AN      X      Y      Z        X      Y      Z        X      Y      Z
   1   6     0.00   0.01   0.00     0.04   0.23   0.13     0.01  -0.01  -0.00
   2   6     0.00   0.00   0.00    -0.12   0.03  -0.02    -0.01   0.01   0.00
   3   6     0.00  -0.00  -0.01     0.01  -0.01   0.01     0.03  -0.10   0.02
   4   6     0.00   0.01   0.02     0.00   0.00  -0.00    -0.02   0.01  -0.01
   5   8    -0.01  -0.00  -0.01    -0.00  -0.00  -0.00     0.01  -0.00   0.00
   6   8     0.01  -0.01  -0.00    -0.00  -0.00   0.00    -0.00   0.00   0.01
   7   7    -0.00  -0.00   0.00    -0.00  -0.01  -0.00    -0.01  -0.06  -0.26
   8   6    -0.02  -0.01   0.01     0.02   0.01  -0.02    -0.00   0.00  -0.00
   9   7     0.10  -0.04   0.10     0.00  -0.01  -0.00    -0.00  -0.00  -0.00
  10   6    -0.26   0.08  -0.18    -0.00  -0.01  -0.01     0.01   0.01   0.01
  11   7     0.17  -0.34   0.06    -0.00   0.01  -0.00    -0.00  -0.00  -0.00
  12   7     0.06   0.02   0.06     0.00   0.01   0.01    -0.00  -0.01  -0.01
  13   1    -0.01  -0.01  -0.02    -0.17  -0.20  -0.54     0.00   0.00   0.01
  14   1    -0.00  -0.03   0.00     0.03  -0.63   0.03    -0.02   0.02   0.00
  15   1    -0.00   0.00   0.00     0.25  -0.05  -0.09     0.00  -0.00  -0.00
  16   1    -0.00   0.00  -0.01     0.15  -0.03   0.21     0.00   0.02   0.00
  17   1    -0.01   0.00   0.01    -0.01   0.01  -0.00    -0.02   0.04  -0.07
  18   1    -0.02   0.03  -0.00     0.00   0.00   0.00    -0.00  -0.00  -0.00
  19   1    -0.01   0.01  -0.00    -0.01   0.02  -0.01    -0.34   0.12   0.59
  20   1     0.00   0.01   0.00     0.01   0.01   0.01     0.39   0.32   0.41
  21   1     0.03   0.07  -0.01    -0.05  -0.04   0.02     0.00  -0.01  -0.00
  22   1     0.00   0.00  -0.05    -0.01   0.01   0.07     0.00  -0.00   0.00
  23   1    -0.32   0.38  -0.39     0.01  -0.01   0.01     0.01  -0.00   0.00
  24   1     0.05   0.52   0.15    -0.00  -0.02  -0.00     0.00   0.00  -0.00
  25   1    -0.02   0.09   0.06     0.00  -0.00   0.00    -0.00   0.00   0.00
  26   1     0.01  -0.00   0.01     0.00   0.00  -0.00    -0.01   0.00  -0.01
                     58                     59                     60
                        a                      a                      a 
 Frequencies --  1687.6053              2927.4276              2955.3442
 Red. masses --    12.2818                 1.7382                 1.7959
 Frc consts  --     0.0000                 0.0000                 0.0000
 IR Inten    --   396.3856                42.7937                42.7855
 Raman Activ --     0.0000                 0.0000                 0.0000
 Depolar     --     0.0000                 0.0000                 0.0000
 Atom AN      X      Y      Z        X      Y      Z        X      Y      Z
   1   6    -0.00  -0.00   0.00     0.00   0.00   0.00    -0.00  -0.02   0.01
   2   6     0.00   0.00  -0.00     0.01  -0.01   0.00    -0.15   0.06   0.17
   3   6     0.00   0.01   0.01    -0.20  -0.16  -0.06    -0.01  -0.00   0.00
   4   6    -0.00  -0.00  -0.02    -0.01  -0.01  -0.00     0.00  -0.00  -0.00
   5   8     0.00   0.00   0.00     0.00   0.00   0.00     0.00  -0.00   0.00
   6   8     0.00  -0.00   0.00     0.00   0.00  -0.00    -0.00   0.00   0.00
   7   7     0.00   0.00   0.00    -0.00   0.00  -0.01     0.00  -0.00  -0.00
   8   6     0.01   0.01   0.01     0.00   0.00  -0.00    -0.03  -0.01  -0.11
   9   7    -0.07  -0.02  -0.07     0.00   0.00   0.00    -0.00   0.00  -0.00
  10   6     0.11   0.63   0.48     0.00  -0.00  -0.00     0.00  -0.00   0.00
  11   7     0.04  -0.16  -0.03    -0.00  -0.00   0.00    -0.00   0.00   0.00
  12   7    -0.09  -0.41  -0.33    -0.00   0.00   0.00     0.00  -0.00  -0.00
  13   1     0.00  -0.00  -0.01     0.00  -0.01   0.00    -0.02   0.06  -0.02
  14   1     0.02  -0.01  -0.00    -0.00   0.00  -0.01    -0.00  -0.00  -0.01
  15   1    -0.00  -0.00   0.00    -0.01   0.00  -0.04    -0.06   0.01  -0.10
  16   1    -0.00  -0.00   0.00    -0.04   0.02   0.04     0.62  -0.25  -0.52
  17   1     0.01  -0.00  -0.00     0.73   0.57   0.25     0.03   0.03   0.01
  18   1    -0.01   0.00  -0.00    -0.00   0.00   0.00     0.00   0.00  -0.00
  19   1     0.00  -0.00  -0.02    -0.01  -0.01  -0.01    -0.00   0.00   0.00
  20   1    -0.00  -0.00  -0.01    -0.00   0.00  -0.00    -0.00   0.00  -0.00
  21   1    -0.01  -0.04   0.01     0.00   0.00   0.00     0.13   0.01   0.41
  22   1     0.00  -0.00   0.03    -0.01  -0.01  -0.00    -0.01  -0.00  -0.01
  23   1     0.02  -0.01  -0.04     0.00   0.00   0.00     0.00   0.00   0.00
  24   1     0.00   0.10   0.04     0.00  -0.00  -0.00    -0.00  -0.00  -0.00
  25   1    -0.04  -0.07  -0.09     0.00   0.00   0.00     0.00   0.00   0.00
  26   1    -0.00  -0.00  -0.01    -0.00   0.00   0.00    -0.00   0.00   0.00
                     61                     62                     63
                        a                      a                      a 
 Frequencies --  2957.3300              2987.6777              2997.2362
 Red. masses --     1.7211                 1.8246                 1.6911
 Frc consts  --     0.0000                 0.0000                 0.0000
 IR Inten    --    39.7944                12.3947                51.5452
 Raman Activ --     0.0000                 0.0000                 0.0000
 Depolar     --     0.0000                 0.0000                 0.0000
 Atom AN      X      Y      Z        X      Y      Z        X      Y      Z
   1   6     0.02  -0.01   0.03     0.07  -0.14   0.16     0.05  -0.18   0.05
   2   6     0.08  -0.03  -0.08    -0.07   0.01  -0.14     0.08  -0.02   0.14
   3   6     0.01   0.00  -0.00    -0.01  -0.00  -0.01     0.01   0.00   0.01
   4   6    -0.00   0.00  -0.00    -0.00   0.00  -0.00     0.00  -0.00   0.00
   5   8    -0.00  -0.00   0.00     0.00  -0.00  -0.00    -0.00   0.00  -0.00
   6   8     0.00  -0.00   0.00     0.00   0.00  -0.00    -0.00   0.00  -0.00
   7   7    -0.00   0.00   0.00    -0.00   0.00   0.00    -0.00  -0.00  -0.00
   8   6    -0.06  -0.01  -0.21     0.01   0.00   0.03     0.02   0.00   0.02
   9   7    -0.00   0.01  -0.01     0.00   0.00  -0.00     0.00   0.00  -0.00
  10   6     0.00  -0.00  -0.00    -0.00   0.00   0.00    -0.00   0.00  -0.00
  11   7    -0.00  -0.00   0.00     0.00  -0.00   0.00     0.00  -0.00  -0.00
  12   7     0.00   0.00   0.00     0.00  -0.00   0.00     0.00   0.00  -0.00
  13   1    -0.01   0.04  -0.01    -0.13   0.53  -0.16    -0.17   0.67  -0.22
  14   1    -0.05  -0.01  -0.15    -0.14  -0.03  -0.41     0.02  -0.02   0.05
  15   1     0.03  -0.01   0.04     0.20  -0.02   0.59    -0.20   0.02  -0.59
  16   1    -0.31   0.12   0.26     0.06  -0.03  -0.08    -0.08   0.03   0.09
  17   1    -0.02  -0.02  -0.01     0.03   0.02   0.01    -0.02  -0.02  -0.01
  18   1    -0.00  -0.00   0.00    -0.00   0.00   0.00    -0.00   0.00   0.00
  19   1     0.00   0.00   0.00    -0.00   0.00  -0.00     0.00   0.00  -0.00
  20   1     0.00  -0.00   0.00     0.00   0.00  -0.00    -0.00   0.00   0.00
  21   1     0.25   0.02   0.81    -0.03  -0.00  -0.09    -0.01  -0.00  -0.05
  22   1    -0.01  -0.00  -0.03    -0.02  -0.02   0.00    -0.05  -0.03  -0.01
  23   1     0.00   0.00  -0.00    -0.00   0.00   0.00    -0.00  -0.00   0.00
  24   1    -0.00   0.00  -0.00    -0.00   0.00  -0.00    -0.00   0.00   0.00
  25   1    -0.00   0.00  -0.00    -0.00  -0.00  -0.00    -0.00  -0.00  -0.00
  26   1     0.00   0.00   0.00    -0.00   0.00   0.00     0.00  -0.00  -0.00
                     64                     65                     66
                        a                      a                      a 
 Frequencies --  3003.2172              3014.9049              3360.2576
 Red. masses --     1.6399                 1.7482                 1.8426
 Frc consts  --     0.0000                 0.0000                 0.0000
 IR Inten    --    31.2212                27.1302                92.0407
 Raman Activ --     0.0000                 0.0000                 0.0000
 Depolar     --     0.0000                 0.0000                 0.0000
 Atom AN      X      Y      Z        X      Y      Z        X      Y      Z
   1   6     0.05   0.07   0.19    -0.02  -0.04  -0.04     0.00   0.00   0.00
   2   6     0.03   0.00   0.10    -0.00   0.00  -0.02    -0.00   0.00   0.00
   3   6     0.01   0.00   0.00    -0.00  -0.00  -0.00    -0.00  -0.00  -0.00
   4   6     0.00   0.00   0.00     0.00   0.00   0.00    -0.00   0.01  -0.01
   5   8    -0.00   0.00  -0.00     0.00   0.00   0.00    -0.00  -0.00   0.00
   6   8    -0.00  -0.00   0.00     0.00  -0.00  -0.00     0.08   0.02  -0.21
   7   7    -0.00  -0.00  -0.00     0.00   0.00  -0.00    -0.04  -0.04  -0.04
   8   6    -0.05  -0.03   0.03    -0.21  -0.14  -0.04     0.00   0.00  -0.00
   9   7    -0.00  -0.00   0.00    -0.00  -0.01  -0.00    -0.00  -0.00  -0.00
  10   6    -0.00   0.00   0.00     0.00  -0.00  -0.00     0.00   0.00   0.00
  11   7     0.00  -0.00  -0.00    -0.00   0.00  -0.00     0.00   0.00   0.00
  12   7     0.00  -0.00  -0.00    -0.00   0.00  -0.00    -0.01  -0.00  -0.01
  13   1     0.07  -0.22   0.10    -0.03   0.12  -0.05     0.00  -0.00   0.00
  14   1    -0.26  -0.02  -0.78     0.07   0.00   0.20     0.00  -0.00   0.00
  15   1    -0.12   0.01  -0.34     0.02  -0.00   0.07    -0.00  -0.00  -0.00
  16   1     0.01  -0.00   0.01    -0.01   0.00   0.00     0.00  -0.00  -0.00
  17   1    -0.02  -0.01  -0.01     0.01   0.01   0.00     0.00   0.00   0.00
  18   1     0.00   0.00  -0.00    -0.00  -0.00   0.00    -0.31  -0.14   0.85
  19   1     0.00   0.00  -0.00     0.00  -0.00   0.00     0.23   0.18   0.09
  20   1    -0.00   0.00  -0.00    -0.00   0.00   0.00    -0.09   0.01   0.06
  21   1    -0.04  -0.01  -0.11    -0.02  -0.02   0.02     0.00  -0.00   0.00
  22   1     0.20   0.14   0.03     0.76   0.53   0.10    -0.00  -0.00   0.00
  23   1    -0.00   0.00   0.00    -0.00   0.00   0.00    -0.01  -0.02  -0.01
  24   1    -0.00   0.00   0.00     0.00   0.00   0.00     0.00  -0.00   0.01
  25   1    -0.00   0.00  -0.00     0.00  -0.00   0.00     0.03  -0.00   0.02
  26   1     0.00  -0.00  -0.00     0.00  -0.00   0.00     0.00  -0.00  -0.00
                     67                     68                     69
                        a                      a                      a 
 Frequencies --  3371.8578              3379.6045              3418.3928
 Red. masses --     1.6764                 1.8637                 1.9472
 Frc consts  --     0.0000                 0.0000                 0.0000
 IR Inten    --    31.7758                33.7914                 3.1156
 Raman Activ --     0.0000                 0.0000                 0.0000
 Depolar     --     0.0000                 0.0000                 0.0000
 Atom AN      X      Y      Z        X      Y      Z        X      Y      Z
   1   6     0.00   0.00   0.00     0.00  -0.00   0.00    -0.00   0.00  -0.00
   2   6    -0.00   0.00  -0.00     0.00  -0.00  -0.00    -0.00   0.00  -0.00
   3   6     0.00   0.01   0.01     0.00   0.00   0.00    -0.01   0.00   0.00
   4   6    -0.00   0.00  -0.00     0.00   0.00  -0.00     0.00   0.00  -0.00
   5   8     0.00  -0.00   0.00    -0.00  -0.00  -0.00     0.00  -0.00   0.00
   6   8     0.03   0.01  -0.07    -0.00  -0.00   0.01     0.00   0.00  -0.00
   7   7     0.12   0.14   0.10     0.00   0.00   0.01    -0.24  -0.00   0.12
   8   6    -0.00  -0.00   0.00     0.00   0.00   0.00     0.00   0.00  -0.00
   9   7     0.00  -0.00  -0.00     0.00  -0.00   0.00    -0.00   0.00  -0.00
  10   6     0.00  -0.00  -0.00    -0.01   0.02   0.00     0.00   0.00   0.00
  11   7     0.00   0.00   0.00     0.00   0.00   0.01    -0.00  -0.00  -0.00
  12   7     0.00   0.00   0.00    -0.19   0.01  -0.17     0.00  -0.00   0.00
  13   1    -0.00  -0.00   0.00    -0.00   0.00  -0.00     0.00  -0.00  -0.00
  14   1    -0.00   0.00  -0.00    -0.00  -0.00  -0.00     0.00  -0.00   0.00
  15   1    -0.00   0.00  -0.00     0.00  -0.00   0.00    -0.00   0.00  -0.00
  16   1     0.00  -0.00  -0.00    -0.00   0.00   0.00     0.00  -0.00  -0.00
  17   1    -0.01  -0.01  -0.00    -0.00  -0.00   0.00     0.00   0.00  -0.00
  18   1    -0.11  -0.04   0.30     0.01   0.00  -0.02    -0.01  -0.01   0.02
  19   1    -0.68  -0.51  -0.25    -0.02  -0.02  -0.01     0.17   0.16   0.09
  20   1     0.21  -0.01  -0.14     0.02  -0.00  -0.01     0.74  -0.15  -0.55
  21   1     0.00  -0.00   0.00     0.00  -0.00   0.00     0.00  -0.00  -0.00
  22   1     0.00   0.00  -0.00    -0.00  -0.00   0.00     0.00  -0.00  -0.00
  23   1    -0.00  -0.01  -0.01    -0.00  -0.01  -0.01     0.00   0.00   0.00
  24   1     0.00  -0.00   0.00    -0.01   0.00  -0.01     0.00   0.00  -0.00
  25   1    -0.02   0.00  -0.01     0.72  -0.10   0.64    -0.01   0.00  -0.01
  26   1     0.00  -0.00  -0.00     0.00  -0.00  -0.00    -0.00   0.00   0.00
                     70                     71                     72
                        a                      a                      a 
 Frequencies --  3440.1461              3508.7198              3531.1091
 Red. masses --     1.4771                 2.1359                 1.8621
 Frc consts  --     0.0000                 0.0000                 0.0000
 IR Inten    --    32.9243                 8.4775                28.1750
 Raman Activ --     0.0000                 0.0000                 0.0000
 Depolar     --     0.0000                 0.0000                 0.0000
 Atom AN      X      Y      Z        X      Y      Z        X      Y      Z
   1   6    -0.00  -0.00  -0.00     0.00  -0.00  -0.00     0.00   0.00  -0.00
   2   6     0.00   0.00  -0.00    -0.00  -0.00   0.00     0.00  -0.00   0.00
   3   6     0.00  -0.00   0.00    -0.00   0.00  -0.00    -0.00   0.00  -0.00
   4   6     0.00   0.00   0.00    -0.00  -0.00   0.00     0.00  -0.00  -0.01
   5   8     0.00  -0.00  -0.00     0.00  -0.00  -0.00     0.18  -0.11  -0.12
   6   8     0.00  -0.00  -0.01    -0.00   0.00   0.00     0.00   0.00  -0.00
   7   7     0.00  -0.00  -0.00    -0.00  -0.00  -0.00     0.00   0.00  -0.00
   8   6     0.00  -0.00  -0.00     0.00   0.00  -0.00     0.00  -0.00   0.00
   9   7    -0.00  -0.00  -0.00    -0.00  -0.00  -0.00     0.00  -0.00   0.00
  10   6    -0.00  -0.01   0.00     0.00   0.00   0.01    -0.00   0.00  -0.00
  11   7    -0.01  -0.19   0.01     0.15   0.06   0.24    -0.00  -0.00  -0.00
  12   7    -0.00   0.00   0.00     0.00  -0.00   0.00    -0.00   0.00  -0.00
  13   1    -0.00  -0.00   0.00     0.00  -0.00  -0.00    -0.00   0.00  -0.00
  14   1     0.00  -0.00   0.00     0.00   0.00   0.00    -0.00   0.00   0.00
  15   1    -0.00   0.00  -0.00    -0.00  -0.00  -0.00    -0.00   0.00  -0.00
  16   1     0.00  -0.00  -0.00     0.00   0.00  -0.00    -0.00   0.00   0.00
  17   1    -0.00  -0.00  -0.00     0.00   0.00  -0.00    -0.00  -0.00  -0.00
  18   1    -0.01  -0.00   0.03     0.00   0.00  -0.01    -0.00  -0.00   0.00
  19   1    -0.00  -0.00  -0.00     0.00   0.00   0.00     0.00  -0.00  -0.00
  20   1    -0.00   0.00   0.00     0.00  -0.00  -0.00    -0.00   0.00   0.00
  21   1    -0.00   0.00  -0.00    -0.00  -0.00  -0.00     0.00  -0.00  -0.00
  22   1    -0.00  -0.00  -0.00     0.00   0.00   0.00     0.00   0.00   0.00
  23   1     0.30   0.61   0.43    -0.19  -0.42  -0.26     0.00   0.01   0.00
  24   1    -0.28   0.11  -0.46    -0.39   0.19  -0.67     0.01  -0.00   0.01
  25   1     0.00  -0.00   0.00    -0.01  -0.00  -0.01     0.00  -0.00   0.00
  26   1    -0.00   0.00   0.00    -0.01   0.01   0.01    -0.71   0.43   0.51
