      -----------------------------------------------------------      
     |                   =====================                   |     
     |                           x T B                           |     
     |                   =====================                   |     
     |                         S. Grimme                         |     
     |          Mulliken Center for Theoretical Chemistry        |     
     |                    University of Bonn                     |     
      -----------------------------------------------------------      

   * xtb version 6.6.0 (8843059) compiled by 'stahn@majestix' on 2023-02-09

   xtb is free software: you can redistribute it and/or modify it under
   the terms of the GNU Lesser General Public License as published by
   the Free Software Foundation, either version 3 of the License, or
   (at your option) any later version.
   
   xtb is distributed in the hope that it will be useful,
   but WITHOUT ANY WARRANTY; without even the implied warranty of
   MERCHANTABILITY or FITNESS FOR A PARTICULAR PURPOSE.  See the
   GNU Lesser General Public License for more details.
   
   Cite this work as:
   * C. Bannwarth, E. Caldeweyher, S. Ehlert, A. Hansen, P. Pracht,
     J. Seibert, S. Spicher, S. Grimme, WIREs Comput. Mol. Sci., 2020, 11,
     e01493. DOI: 10.1002/wcms.1493
   
   for GFN2-xTB:
   * C. Bannwarth, S. Ehlert and S. Grimme., J. Chem. Theory Comput., 2019,
     15, 1652-1671. DOI: 10.1021/acs.jctc.8b01176
   for GFN1-xTB:
   * S. Grimme, C. Bannwarth, P. Shushkov, J. Chem. Theory Comput., 2017,
     13, 1989-2009. DOI: 10.1021/acs.jctc.7b00118
   for GFN0-xTB:
   * P. Pracht, E. Caldeweyher, S. Ehlert, S. Grimme, ChemRxiv, 2019, preprint.
     DOI: 10.26434/chemrxiv.8326202.v1
   for GFN-FF:
   * S. Spicher and S. Grimme, Angew. Chem. Int. Ed., 2020, 59, 15665-15673.
     DOI: 10.1002/anie.202004239
   
   for ALPB and GBSA implicit solvation:
   * S. Ehlert, M. Stahn, S. Spicher, S. Grimme, J. Chem. Theory Comput.,
     2021, 17, 4250-4261. DOI: 10.1021/acs.jctc.1c00471
   
   for DFT-D4:
   * E. Caldeweyher, C. Bannwarth and S. Grimme, J. Chem. Phys., 2017,
     147, 034112. DOI: 10.1063/1.4993215
   * E. Caldeweyher, S. Ehlert, A. Hansen, H. Neugebauer, S. Spicher,
     C. Bannwarth and S. Grimme, J. Chem. Phys., 2019, 150, 154122.
     DOI: 10.1063/1.5090222
   * E. Caldeweyher, J.-M. Mewes, S. Ehlert and S. Grimme, Phys. Chem. Chem. Phys.
     2020, 22, 8499-8512. DOI: 10.1039/D0CP00502A
   
   for sTDA-xTB:
   * S. Grimme and C. Bannwarth, J. Chem. Phys., 2016, 145, 054103.
     DOI: 10.1063/1.4959605
   
   in the mass-spec context:
   * V. Asgeirsson, C. Bauer and S. Grimme, Chem. Sci., 2017, 8, 4879.
     DOI: 10.1039/c7sc00601b
   * J. Koopman and S. Grimme, ACS Omega 2019, 4, 12, 15120-15133.
     DOI: 10.1021/acsomega.9b02011
   
   for metadynamics refer to:
   * S. Grimme, J. Chem. Theory Comput., 2019, 155, 2847-2862
     DOI: 10.1021/acs.jctc.9b00143
   
   for SPH calculations refer to:
   * S. Spicher and S. Grimme, J. Chem. Theory Comput., 2021, 17, 1701-1714
     DOI: 10.1021/acs.jctc.0c01306
   
   with help from (in alphabetical order)
   P. Atkinson, C. Bannwarth, F. Bohle, G. Brandenburg, E. Caldeweyher
   M. Checinski, S. Dohm, S. Ehlert, S. Ehrlich, I. Gerasimov, C. Hölzer
   A. Katbashev, J. Koopman, C. Lavigne, S. Lehtola, F. März, M. Müller,
   F. Musil, H. Neugebauer, J. Pisarek, C. Plett, P. Pracht, F. Pultar,
   J. Seibert, P. Shushkov, S. Spicher, M. Stahn, M. Steiner, T. Strunk,
   J. Stückrath, T. Rose, and J. Unsleber
   
 * started run on 2025/07/30 at 12:34:50.203     

           -------------------------------------------------
          |                Calculation Setup                |
           -------------------------------------------------

          program call               : xtb --gfn2 in.xyz --ohess vtight
          coordinate file            : in.xyz
          omp threads                :                     8

   ID    Z sym.   atoms
    1    6 C      1-4, 8, 10
    2    8 O      5, 6
    3    7 N      7, 9, 11, 12
    4    1 H      13-26

           -------------------------------------------------
          |                 G F N 2 - x T B                 |
           -------------------------------------------------

        Reference                      10.1021/acs.jctc.8b01176
      * Hamiltonian:
        H0-scaling (s, p, d)           1.850000    2.230000    2.230000
        zeta-weighting                 0.500000
      * Dispersion:
        s8                             2.700000
        a1                             0.520000
        a2                             5.000000
        s9                             5.000000
      * Repulsion:
        kExp                           1.500000    1.000000
        rExp                           1.000000
      * Coulomb:
        alpha                          2.000000
        third order                    shell-resolved
        anisotropic                    true
        a3                             3.000000
        a5                             4.000000
        cn-shift                       1.200000
        cn-exp                         4.000000
        max-rad                        5.000000


          ...................................................
          :                      SETUP                      :
          :.................................................:
          :  # basis functions                  62          :
          :  # atomic orbitals                  62          :
          :  # shells                           38          :
          :  # electrons                        70          :
          :  max. iterations                   250          :
          :  Hamiltonian                  GFN2-xTB          :
          :  restarted?                      false          :
          :  GBSA solvation                  false          :
          :  PC potential                    false          :
          :  electronic temp.          300.0000000     K    :
          :  accuracy                    1.0000000          :
          :  -> integral cutoff          0.2500000E+02      :
          :  -> integral neglect         0.1000000E-07      :
          :  -> SCF convergence          0.1000000E-05 Eh   :
          :  -> wf. convergence          0.1000000E-03 e    :
          :  Broyden damping             0.4000000          :
          ...................................................

 iter      E             dE          RMSdq      gap      omega  full diag
   1    -40.1968387 -0.401968E+02  0.362E+00    4.79       0.0  T
   2    -40.2428283 -0.459897E-01  0.206E+00    5.12       1.0  T
   3    -40.2447682 -0.193988E-02  0.790E-01    4.93       1.0  T
   4    -40.2461540 -0.138574E-02  0.181E-01    4.96       1.0  T
   5    -40.2463617 -0.207714E-03  0.649E-02    4.96       1.0  T
   6    -40.2463805 -0.187764E-04  0.312E-02    4.96       1.0  T
   7    -40.2463816 -0.114149E-05  0.596E-03    4.97       3.3  T
   8    -40.2463818 -0.172257E-06  0.313E-03    4.96       6.3  T
   9    -40.2463818 -0.638809E-07  0.129E-03    4.96      15.2  T
  10    -40.2463818 -0.653172E-08  0.335E-04    4.96      58.6  T
  11    -40.2463818 -0.255525E-09  0.970E-05    4.96     202.1  T

   *** convergence criteria satisfied after 11 iterations ***

         #    Occupation            Energy/Eh            Energy/eV
      -------------------------------------------------------------
         1        2.0000           -0.7151403             -19.4600
       ...           ...                  ...                  ...
        29        2.0000           -0.4454205             -12.1205
        30        2.0000           -0.4327276             -11.7751
        31        2.0000           -0.4213666             -11.4660
        32        2.0000           -0.3923794             -10.6772
        33        2.0000           -0.3813782             -10.3778
        34        2.0000           -0.3645828              -9.9208
        35        2.0000           -0.3600390              -9.7972 (HOMO)
        36                         -0.1776149              -4.8331 (LUMO)
        37                         -0.0041738              -0.1136
        38                          0.0154170               0.4195
        39                          0.0492191               1.3393
        40                          0.0595851               1.6214
       ...                                ...                  ...
        62                          0.5947692              16.1845
      -------------------------------------------------------------
                  HL-Gap            0.1824241 Eh            4.9640 eV
             Fermi-level           -0.2688269 Eh           -7.3152 eV

 SCC (total)                   0 d,  0 h,  0 min,  0.022 sec
 SCC setup                      ...        0 min,  0.000 sec (  1.140%)
 Dispersion                     ...        0 min,  0.000 sec (  1.122%)
 classical contributions        ...        0 min,  0.000 sec (  0.153%)
 integral evaluation            ...        0 min,  0.002 sec (  9.216%)
 iterations                     ...        0 min,  0.014 sec ( 63.872%)
 molecular gradient             ...        0 min,  0.005 sec ( 23.587%)
 printout                       ...        0 min,  0.000 sec (  0.766%)

         :::::::::::::::::::::::::::::::::::::::::::::::::::::
         ::                     SUMMARY                     ::
         :::::::::::::::::::::::::::::::::::::::::::::::::::::
         :: total energy             -39.827523486245 Eh    ::
         :: gradient norm              0.000063571386 Eh/a0 ::
         :: HOMO-LUMO gap              4.964012472984 eV    ::
         ::.................................................::
         :: SCC energy               -40.246381836121 Eh    ::
         :: -> isotropic ES            0.097799240617 Eh    ::
         :: -> anisotropic ES         -0.004556214898 Eh    ::
         :: -> anisotropic XC          0.016052224761 Eh    ::
         :: -> dispersion             -0.024600789316 Eh    ::
         :: repulsion energy           0.418578729853 Eh    ::
         :: add. restraining           0.000000000000 Eh    ::
         :: total charge              -0.000000000000 e     ::
         :::::::::::::::::::::::::::::::::::::::::::::::::::::

      ----------------------------------------------------------- 
     |                   =====================                   |
     |                        A N C O P T                        |
     |                   =====================                   |
     |               Approximate Normal Coordinate               |
     |                Rational Function Optimizer                |
      ----------------------------------------------------------- 

          ...................................................
          :                      SETUP                      :
          :.................................................:
          :   optimization level         verytight          :
          :   max. optcycles                   520          :
          :   ANC micro-cycles                  20          :
          :   degrees of freedom                72          :
          :.................................................:
          :   RF solver                   davidson          :
          :   write xtbopt.log                true          :
          :   linear?                        false          :
          :   energy convergence         0.1000000E-06 Eh   :
          :   grad. convergence          0.2000000E-03 Eh/α :
          :   maxmium RF displ.          1.0000000          :
          :   Hlow (freq-cutoff)         0.1000000E-01      :
          :   Hmax (freq-cutoff)         5.0000000          :
          :   S6 in model hess.         20.0000000          :
          ...................................................

generating ANC from model Hessian ...
Using Lindh-Hessian (1995)
 Shifting diagonal of input Hessian by   7.246577346003757E-003
 Lowest  eigenvalues of input Hessian
    0.000000    0.000000    0.000000    0.000000    0.000000    0.000000
    0.010000    0.011132    0.012985    0.015770    0.017192    0.019966
    0.021457    0.024180    0.027508    0.028752    0.030861    0.033006
 Highest eigenvalues
    1.444492    1.523341    1.566200    1.664786    2.025184    2.258199
 

........................................................................
.............................. CYCLE    1 ..............................
........................................................................

 iter      E             dE          RMSdq      gap      omega  full diag
   1    -40.2463818 -0.402464E+02  0.390E-05    4.96       0.0  T
   2    -40.2463818 -0.324007E-11  0.233E-05    4.96     841.3  T
   3    -40.2463818 -0.468958E-12  0.778E-06    4.96    2520.3  T
     SCC iter.                  ...        0 min,  0.003 sec
     gradient                   ...        0 min,  0.004 sec
 * total energy  :   -39.8275235 Eh     change       -0.2783196E-10 Eh
   gradient norm :     0.0000636 Eh/α   predicted     0.0000000E+00 (-100.00%)
   displ. norm   :     0.0000955 α      lambda        0.0000000E+00
   maximum displ.:     0.0000303 α      in ANC's #44, #60, #39, ...

   *** GEOMETRY OPTIMIZATION CONVERGED AFTER 1 ITERATIONS ***

------------------------------------------------------------------------
 total energy gain   :        -0.0000000 Eh       -0.0000 kcal/mol
 total RMSD          :         0.0000000 a0        0.0000 Å
 total power (kW/mol):        -0.0000001 (step)   -0.0000 (real)
------------------------------------------------------------------------

 ANCopt (total)                0 d,  0 h,  0 min,  0.059 sec
 optimizer setup                ...        0 min,  0.000 sec (  0.252%)
 model hessian                  ...        0 min,  0.049 sec ( 82.521%)
 ANC generation                 ...        0 min,  0.001 sec (  1.339%)
 coordinate transformation      ...        0 min,  0.000 sec (  0.023%)
 single point calculation       ...        0 min,  0.009 sec ( 15.303%)
 optimization log               ...        0 min,  0.000 sec (  0.251%)
 hessian update                 ...        0 min,  0.000 sec (  0.005%)
 rational function              ...        0 min,  0.000 sec (  0.081%)

================
 final structure:
================
26
 xtb: 6.6.0 (8843059)
C           -0.78561300000000        2.08929600000000        0.01408500000000
C           -1.99417800000000        1.16883500000000       -0.12239300000000
C           -1.61886800000000       -0.28199100000000        0.19554800000000
C           -0.39729000000000       -0.74403200000000       -0.63995700000000
O           -0.77404300000000       -0.78665800000000       -1.97248800000000
O           -0.04278400000000       -2.02982600000000       -0.22879600000000
N           -1.28443400000000       -0.55924300000000        1.58805600000000
C            0.34908600000000        1.54955400000000       -0.85133400000000
N            0.72513100000000        0.18811000000000       -0.49110300000000
C            1.62666300000000        0.06630900000000        0.56204700000000
N            2.34643700000000       -1.10503200000000        0.56987200000000
N            1.81755800000000        1.05478500000000        1.34197400000000
H           -1.04501100000000        3.09831200000000       -0.30712300000000
H           -0.43861700000000        2.13763500000000        1.04710900000000
H           -2.36064700000000        1.20018300000000       -1.14968100000000
H           -2.80295400000000        1.48506400000000        0.54205900000000
H           -2.44970900000000       -0.94232100000000       -0.08183200000000
H           -0.38500700000000       -2.13519700000000        0.67573600000000
H           -0.53280100000000        0.05872200000000        1.88482800000000
H           -2.08433500000000       -0.37214200000000        2.18220500000000
H            0.03859700000000        1.52855200000000       -1.89952200000000
H            1.24038800000000        2.16484500000000       -0.74028700000000
H            1.95699800000000       -1.88289100000000        0.05996300000000
H            2.82906200000000       -1.33434900000000        1.42381100000000
H            2.57975700000000        0.91501000000000        1.99768500000000
H           -0.06556500000000       -1.21238100000000       -2.47076600000000
 
 Bond Distances (Angstroems)
 ---------------------------
C1-C2=1.5253         C1-C8=1.5257         C1-H13=1.0902        C1-H14=1.0908        C2-C1=1.5253         C2-C3=1.5319         
C2-H15=1.0911        C2-H16=1.0934        C3-C2=1.5319         C3-C4=1.5504         C3-N7=1.4587         C3-H17=1.0969        
C4-C3=1.5504         C4-O5=1.3854         C4-O6=1.3957         C4-N9=1.4666         O5-C4=1.3854         O5-H26=0.9651        
O6-C4=1.3957         O6-H18=0.9728        N7-C3=1.4587         N7-H19=1.0173        N7-H20=1.0138        C8-C1=1.5257         
C8-N9=1.4576         C8-H21=1.0934        C8-H22=1.0887        N9-C4=1.4666         N9-C8=1.4576         N9-C10=1.3917        
C10-N9=1.3917        C10-N11=1.3748       C10-N12=1.2735       N11-C10=1.3748       N11-H23=1.0083       N11-H24=1.0073       
N12-C10=1.2735       N12-H25=1.0151       H13-C1=1.0902        H14-C1=1.0908        H15-C2=1.0911        H16-C2=1.0934        
H17-C3=1.0969        H18-O6=0.9728        H19-N7=1.0173        H20-N7=1.0138        H21-C8=1.0934        H22-C8=1.0887        
H23-N11=1.0083       H24-N11=1.0073       H25-N12=1.0151       H26-O5=0.9651        
 C  H  Rav=1.0921 sigma=0.0025  Rmin=1.0887  Rmax=1.0969     7
 C  C  Rav=1.5333 sigma=0.0102  Rmin=1.5253  Rmax=1.5504     4
 N  H  Rav=1.0124 sigma=0.0039  Rmin=1.0073  Rmax=1.0173     5
 N  C  Rav=1.4038 sigma=0.0681  Rmin=1.2735  Rmax=1.4666     6
 O  H  Rav=0.9690 sigma=0.0039  Rmin=0.9651  Rmax=0.9728     2
 O  C  Rav=1.3906 sigma=0.0051  Rmin=1.3854  Rmax=1.3957     2
 
 selected bond angles (degree)
 --------------------
C8-C1-C2=108.97                H13-C1-C2=110.10               H13-C1-C8=109.71               H14-C1-C2=111.32               
H14-C1-C8=108.44               H14-C1-H13=108.28              C3-C2-C1=111.03                H15-C2-C1=109.45               
H15-C2-C3=107.75               H16-C2-C1=110.93               H16-C2-C3=109.21               H16-C2-H15=108.38              
C4-C3-C2=111.31                N7-C3-C2=115.74                N7-C3-C4=106.09                H17-C3-C2=109.39               
H17-C3-C4=106.33               H17-C3-N7=107.50               O5-C4-C3=108.25                O6-C4-C3=108.42                
O6-C4-O5=108.91                N9-C4-C3=111.03                N9-C4-O5=108.98                N9-C4-O6=111.18                
H26-O5-C4=108.09               H18-O6-C4=106.52               H19-N7-C3=109.42               H20-N7-C3=110.09               
H20-N7-H19=107.45              N9-C8-C1=112.46                H21-C8-C1=109.84               H21-C8-N9=106.99               
H22-C8-C1=110.55               H22-C8-N9=106.94               H22-C8-H21=109.94              C8-N9-C4=111.78                
C10-N9-C4=121.13               C10-N9-C8=115.84               N11-C10-N9=114.71              N12-C10-N9=119.51              
N12-C10-N11=125.40             
 
 selected dihedral angles (degree)
 ---------------------------------
C3-C2-C1-C8= 54.22            C3-C2-C1-H13=174.58           C3-C2-C1-H14=294.67           H15-C2-C1-C8=295.39           
H15-C2-C1-H13= 55.75          H15-C2-C1-H14=175.84          H16-C2-C1-C8=175.84           H16-C2-C1-H13=296.21          
H16-C2-C1-H14= 56.30          C4-C3-C2-C1=307.27            C4-C3-C2-H15= 67.12           C4-C3-C2-H16=184.65           
N7-C3-C2-C1= 68.50            N7-C3-C2-H15=188.34           N7-C3-C2-H16=305.87           H17-C3-C2-C1=190.07           
H17-C3-C2-H15=309.91          H17-C3-C2-H16= 67.44          O5-C4-C3-C2=293.37            O5-C4-C3-N7=166.66            
O5-C4-C3-H17= 52.43           O6-C4-C3-C2=175.37            O6-C4-C3-N7= 48.66            O6-C4-C3-H17=294.42           
N9-C4-C3-C2= 52.96            N9-C4-C3-N7=286.25            N9-C4-C3-H17=172.02           H26-O5-C4-C3=189.33           
H26-O5-C4-O6=307.01           H26-O5-C4-N9= 68.46           H18-O6-C4-C3=336.75           H18-O6-C4-O5=219.17           
H18-O6-C4-N9= 99.07           H19-N7-C3-C2=304.25           H19-N7-C3-C4= 68.23           H19-N7-C3-H17=181.67          
H20-N7-C3-C2= 62.12           H20-N7-C3-C4=186.10           H20-N7-C3-H17=299.54          N9-C8-C1-C2=301.86            
N9-C8-C1-H13=181.26           N9-C8-C1-H14= 63.18           H21-C8-C1-C2= 60.90           H21-C8-C1-H13=300.29          
H21-C8-C1-H14=182.21          H22-C8-C1-C2=182.40           H22-C8-C1-H13= 61.80          H22-C8-C1-H14=303.72          
C8-N9-C4-C3=303.76            C8-N9-C4-O5= 62.91            C8-N9-C4-O6=182.96            C10-N9-C4-C3= 85.92           
C10-N9-C4-O5=205.07           C10-N9-C4-O6=325.13           C4-N9-C8-C1= 60.04            C4-N9-C8-H21=299.35           
C4-N9-C8-H22=181.58           C10-N9-C8-C1=275.73           C10-N9-C8-H21=155.04          C10-N9-C8-H22= 37.27          
N11-C10-N9-C4= 62.72          N11-C10-N9-C8=203.46          N12-C10-N9-C4=236.09          N12-C10-N9-C8= 16.83          
           -------------------------------------------------
          |                Final Singlepoint                |
           -------------------------------------------------

          ...................................................
          :                      SETUP                      :
          :.................................................:
          :  # basis functions                  62          :
          :  # atomic orbitals                  62          :
          :  # shells                           38          :
          :  # electrons                        70          :
          :  max. iterations                   250          :
          :  Hamiltonian                  GFN2-xTB          :
          :  restarted?                      false          :
          :  GBSA solvation                  false          :
          :  PC potential                    false          :
          :  electronic temp.          300.0000000     K    :
          :  accuracy                    1.0000000          :
          :  -> integral cutoff          0.2500000E+02      :
          :  -> integral neglect         0.1000000E-07      :
          :  -> SCF convergence          0.1000000E-05 Eh   :
          :  -> wf. convergence          0.1000000E-03 e    :
          :  Broyden damping             0.4000000          :
          ...................................................

 iter      E             dE          RMSdq      gap      omega  full diag
   1    -40.2463818 -0.402464E+02  0.245E-06    4.96       0.0  T
   2    -40.2463818  0.639488E-13  0.148E-06    4.96   13283.7  T
   3    -40.2463818 -0.710543E-13  0.529E-07    4.96   37050.2  T

   *** convergence criteria satisfied after 3 iterations ***

         #    Occupation            Energy/Eh            Energy/eV
      -------------------------------------------------------------
         1        2.0000           -0.7151394             -19.4599
       ...           ...                  ...                  ...
        29        2.0000           -0.4454204             -12.1205
        30        2.0000           -0.4327274             -11.7751
        31        2.0000           -0.4213665             -11.4660
        32        2.0000           -0.3923791             -10.6772
        33        2.0000           -0.3813777             -10.3778
        34        2.0000           -0.3645820              -9.9208
        35        2.0000           -0.3600385              -9.7971 (HOMO)
        36                         -0.1776141              -4.8331 (LUMO)
        37                         -0.0041732              -0.1136
        38                          0.0154174               0.4195
        39                          0.0492197               1.3393
        40                          0.0595857               1.6214
       ...                                ...                  ...
        62                          0.5947699              16.1845
      -------------------------------------------------------------
                  HL-Gap            0.1824243 Eh            4.9640 eV
             Fermi-level           -0.2688263 Eh           -7.3151 eV

 SCC (total)                   0 d,  0 h,  0 min,  0.010 sec
 SCC setup                      ...        0 min,  0.000 sec (  1.188%)
 Dispersion                     ...        0 min,  0.000 sec (  1.166%)
 classical contributions        ...        0 min,  0.000 sec (  0.202%)
 integral evaluation            ...        0 min,  0.001 sec ( 13.471%)
 iterations                     ...        0 min,  0.004 sec ( 39.592%)
 molecular gradient             ...        0 min,  0.004 sec ( 42.826%)
 printout                       ...        0 min,  0.000 sec (  1.288%)

         :::::::::::::::::::::::::::::::::::::::::::::::::::::
         ::                     SUMMARY                     ::
         :::::::::::::::::::::::::::::::::::::::::::::::::::::
         :: total energy             -39.827523486274 Eh    ::
         :: gradient norm              0.000063664416 Eh/a0 ::
         :: HOMO-LUMO gap              4.964019086858 eV    ::
         ::.................................................::
         :: SCC energy               -40.246381836149 Eh    ::
         :: -> isotropic ES            0.097799157701 Eh    ::
         :: -> anisotropic ES         -0.004556132395 Eh    ::
         :: -> anisotropic XC          0.016052244947 Eh    ::
         :: -> dispersion             -0.024600791700 Eh    ::
         :: repulsion energy           0.418578729853 Eh    ::
         :: add. restraining           0.000000000000 Eh    ::
         :: total charge               0.000000000000 e     ::
         :::::::::::::::::::::::::::::::::::::::::::::::::::::

           ------------------------------------------------- 
          |                Numerical Hessian                |
           ------------------------------------------------- 
step length          :   0.00500
SCC accuracy         :   0.30000
Hessian scale factor :   1.00000
frozen atoms in %    :   0.00000    0
RMS gradient         :   0.00006
estimated CPU  time      0.95 min
estimated wall time      0.12 min

writing file <hessian>.

 projected vibrational frequencies (cm⁻¹)
eigval :       -0.00    -0.00     0.00     0.00     0.00     0.00
eigval :       74.87    79.06   125.94   203.78   237.21   258.35
eigval :      298.88   320.20   323.67   337.26   358.53   375.87
eigval :      410.58   427.72   438.99   469.93   489.30   520.60
eigval :      557.34   561.05   609.88   644.53   667.68   721.84
eigval :      782.72   860.74   879.45   909.36   940.99   983.84
eigval :     1011.96  1026.72  1039.66  1048.64  1070.50  1108.04
eigval :     1110.99  1125.55  1137.43  1152.82  1176.63  1194.18
eigval :     1221.94  1226.33  1271.26  1290.39  1313.18  1320.99
eigval :     1337.16  1337.66  1347.73  1385.59  1436.02  1473.65
eigval :     1478.85  1486.70  1555.81  1687.61  2927.43  2955.34
eigval :     2957.33  2987.68  2997.24  3003.22  3014.90  3360.26
eigval :     3371.86  3379.60  3418.39  3440.15  3508.72  3531.11
           -------------------------------------------------
          |                Property Printout                |
           -------------------------------------------------

    * Orbital Energies and Occupations

         #    Occupation            Energy/Eh            Energy/eV
      -------------------------------------------------------------
         1        2.0000           -0.7151394             -19.4599
       ...           ...                  ...                  ...
        23        2.0000           -0.4841252             -13.1737
        24        2.0000           -0.4773466             -12.9893
        25        2.0000           -0.4721123             -12.8468
        26        2.0000           -0.4653548             -12.6629
        27        2.0000           -0.4532243             -12.3329
        28        2.0000           -0.4509733             -12.2716
        29        2.0000           -0.4454204             -12.1205
        30        2.0000           -0.4327274             -11.7751
        31        2.0000           -0.4213665             -11.4660
        32        2.0000           -0.3923791             -10.6772
        33        2.0000           -0.3813777             -10.3778
        34        2.0000           -0.3645820              -9.9208
        35        2.0000           -0.3600385              -9.7971 (HOMO)
        36                         -0.1776141              -4.8331 (LUMO)
        37                         -0.0041732              -0.1136
        38                          0.0154174               0.4195
        39                          0.0492197               1.3393
        40                          0.0595857               1.6214
        41                          0.0644703               1.7543
        42                          0.0717377               1.9521
        43                          0.0969109               2.6371
        44                          0.0996505               2.7116
        45                          0.1099811               2.9927
        46                          0.1225410               3.3345
       ...                                ...                  ...
        62                          0.5947699              16.1845
      -------------------------------------------------------------
                  HL-Gap            0.1824243 Eh            4.9640 eV
             Fermi-level           -0.2688263 Eh           -7.3151 eV

     #   Z          covCN         q      C6AA      α(0)
     1   6 C        3.804    -0.069    21.815     6.649
     2   6 C        3.806    -0.069    21.822     6.650
     3   6 C        3.783     0.034    20.024     6.374
     4   6 C        3.607     0.330    16.140     5.805
     5   8 O        1.658    -0.441    21.662     6.283
     6   8 O        1.656    -0.467    22.203     6.361
     7   7 N        2.633    -0.370    29.543     8.072
     8   6 C        3.762     0.005    20.544     6.461
     9   7 N        2.745    -0.201    25.362     7.480
    10   6 C        2.748     0.237    23.043     7.860
    11   7 N        2.642    -0.311    28.000     7.859
    12   7 N        1.786    -0.437    32.396     8.430
    13   1 H        0.924     0.039     2.462     2.454
    14   1 H        0.924     0.057     2.231     2.336
    15   1 H        0.924     0.049     2.336     2.390
    16   1 H        0.924     0.032     2.565     2.504
    17   1 H        0.924     0.042     2.426     2.436
    18   1 H        0.804     0.325     0.650     1.266
    19   1 H        0.860     0.160     1.332     1.808
    20   1 H        0.860     0.150     1.401     1.854
    21   1 H        0.924     0.048     2.347     2.396
    22   1 H        0.925     0.063     2.164     2.301
    23   1 H        0.860     0.190     1.157     1.685
    24   1 H        0.860     0.164     1.307     1.791
    25   1 H        0.860     0.121     1.616     1.991
    26   1 H        0.805     0.319     0.666     1.282

 Mol. C6AA /au·bohr⁶  :       5782.214243
 Mol. C8AA /au·bohr⁸  :     123637.326157
 Mol. α(0) /au        :        112.778818


Wiberg/Mayer (AO) data.
largest (>0.10) Wiberg bond orders for each atom

 ---------------------------------------------------------------------------
     #   Z sym  total        # sym  WBO       # sym  WBO       # sym  WBO
 ---------------------------------------------------------------------------
     1   6 C    3.996 --     2 C    1.010     8 C    1.000    13 H    0.975
                            14 H    0.970
     2   6 C    3.997 --     1 C    1.010     3 C    0.988    16 H    0.975
                            15 H    0.974
     3   6 C    3.982 --     7 N    1.016     2 C    0.988    17 H    0.963
                             4 C    0.939
     4   6 C    3.929 --     5 O    1.001     6 O    0.987     3 C    0.939
                             9 N    0.935
     5   8 O    1.990 --     4 C    1.001    26 H    0.878
     6   8 O    1.987 --     4 C    0.987    18 H    0.852
     7   7 N    3.028 --     3 C    1.016    20 H    0.962    19 H    0.951
     8   6 C    3.973 --     1 C    1.000     9 N    0.984    22 H    0.971
                            21 H    0.970
     9   7 N    3.282 --    10 C    1.089     8 C    0.984     4 C    0.935
    10   6 C    3.961 --    12 N    1.669    11 N    1.158     9 N    1.089
    11   7 N    3.268 --    10 C    1.158    24 H    0.953    23 H    0.928
                            12 N    0.163
    12   7 N    2.934 --    10 C    1.669    25 H    0.954    11 N    0.163
    13   1 H    0.998 --     1 C    0.975
    14   1 H    0.997 --     1 C    0.970
    15   1 H    0.998 --     2 C    0.974
    16   1 H    0.999 --     2 C    0.975
    17   1 H    0.998 --     3 C    0.963
    18   1 H    0.894 --     6 O    0.852
    19   1 H    0.974 --     7 N    0.951
    20   1 H    0.978 --     7 N    0.962
    21   1 H    0.998 --     8 C    0.970
    22   1 H    0.996 --     8 C    0.971
    23   1 H    0.964 --    11 N    0.928
    24   1 H    0.973 --    11 N    0.953
    25   1 H    0.985 --    12 N    0.954
    26   1 H    0.898 --     5 O    0.878
 ---------------------------------------------------------------------------

Topologies differ in total number of bonds
Writing topology from bond orders to xtbtopo.mol

molecular dipole:
                 x           y           z       tot (Debye)
 q only:       -0.236      -0.350       0.139
   full:       -0.210      -0.506       0.549       1.971
molecular quadrupole (traceless):
                xx          xy          yy          xz          yz          zz
 q only:       -0.650      -5.523      -0.406      -3.274      -3.902       1.056
  q+dip:        1.466      -7.302      -3.702      -2.764      -3.651       2.236
   full:        1.278      -7.424      -3.786      -2.938      -4.263       2.507

           -------------------------------------------------
          |                Geometry Summary                 |
           -------------------------------------------------

      molecular mass/u    :      174.2012086
   center of mass at/Å    :        0.0000036      -0.0000047       0.0000020
  moments of inertia/u·Å² :        0.4111608E+03   0.5084519E+03   0.6122802E+03
rotational constants/cm⁻¹ :        0.4100009E-01   0.3315482E-01   0.2753255E-01

 * 24 selected distances

     #   Z          #   Z                                           value/Å
     1   6 C        2   6 C                                       1.5252883
     2   6 C        3   6 C                                       1.5319401 (max)
     4   6 C        5   8 O                                       1.3854238
     4   6 C        6   8 O                                       1.3957057
     3   6 C        7   7 N                                       1.4586959
     1   6 C        8   6 C                                       1.5257174
     4   6 C        9   7 N                                       1.4665863
     8   6 C        9   7 N                                       1.4576373
     9   7 N       10   6 C                                       1.3916611
    10   6 C       11   7 N                                       1.3748367
    10   6 C       12   7 N                                       1.2735039
     1   6 C       13   1 H                                       1.0902181
     1   6 C       14   1 H                                       1.0908170
     2   6 C       15   1 H                                       1.0911476
     2   6 C       16   1 H                                       1.0934423
     3   6 C       17   1 H                                       1.0969377
     6   8 O       18   1 H                                       0.9728299
     7   7 N       19   1 H                                       1.0173037
     7   7 N       20   1 H                                       1.0138351
     8   6 C       21   1 H                                       1.0934088
     8   6 C       22   1 H                                       1.0887304
    11   7 N       23   1 H                                       1.0083327
    11   7 N       24   1 H                                       1.0073357
     5   8 O       26   1 H                                       0.9651229 (min)

 * 6 distinct bonds (by element types)

   Z      Z             #   av. dist./Å        max./Å        min./Å
   1 H    6 C           7     1.0921003     1.0969377     1.0887304
   6 C    6 C           3     1.5276486     1.5319401     1.5252883
   1 H    7 N           4     1.0117018     1.0173037     1.0073357
   6 C    7 N           6     1.4038202     1.4665863     1.2735039
   1 H    8 O           2     0.9689764     0.9728299     0.9651229
   6 C    8 O           2     1.3905647     1.3957057     1.3854238

           -------------------------------------------------
          |               Frequency Printout                |
           -------------------------------------------------
 projected vibrational frequencies (cm⁻¹)
eigval :       -0.00    -0.00     0.00     0.00     0.00     0.00
eigval :       74.87    79.06   125.94   203.78   237.21   258.35
eigval :      298.88   320.20   323.67   337.26   358.53   375.87
eigval :      410.58   427.72   438.99   469.93   489.30   520.60
eigval :      557.34   561.05   609.88   644.53   667.68   721.84
eigval :      782.72   860.74   879.45   909.36   940.99   983.84
eigval :     1011.96  1026.72  1039.66  1048.64  1070.50  1108.04
eigval :     1110.99  1125.55  1137.43  1152.82  1176.63  1194.18
eigval :     1221.94  1226.33  1271.26  1290.39  1313.18  1320.99
eigval :     1337.16  1337.66  1347.73  1385.59  1436.02  1473.65
eigval :     1478.85  1486.70  1555.81  1687.61  2927.43  2955.34
eigval :     2957.33  2987.68  2997.24  3003.22  3014.90  3360.26
eigval :     3371.86  3379.60  3418.39  3440.15  3508.72  3531.11
 reduced masses (amu)
   1: 11.58   2: 12.68   3: 11.12   4: 12.17   5: 12.47   6: 13.05   7: 12.14   8: 12.05
   9: 10.38  10: 11.89  11:  9.35  12: 11.50  13:  4.13  14:  8.02  15:  6.30  16:  9.95
  17:  9.78  18: 10.17  19:  3.20  20: 10.78  21:  7.59  22: 10.06  23:  5.23  24: 10.60
  25:  7.98  26:  9.30  27:  8.63  28:  9.39  29: 10.72  30: 10.98  31:  3.13  32:  7.13
  33:  6.81  34:  8.23  35:  8.24  36:  6.86  37:  5.57  38:  6.39  39:  8.37  40:  7.26
  41:  6.34  42:  9.61  43:  5.38  44:  6.54  45:  7.24  46:  8.44  47:  7.62  48:  6.81
  49:  5.40  50:  6.20  51:  4.38  52:  4.57  53:  5.40  54:  4.55  55:  4.52  56:  4.38
  57:  5.55  58:  8.81  59:  1.96  60:  1.91  61:  4.48  62:  2.01  63:  2.11  64: 12.28
  65:  1.74  66:  1.80  67:  1.72  68:  1.82  69:  1.69  70:  1.64  71:  1.75  72:  1.84
  73:  1.68  74:  1.86  75:  1.95  76:  1.48  77:  2.14  78:  1.86
 IR intensities (km·mol⁻¹)
   1:  0.05   2:  0.08   3:  0.15   4:  0.21   5:  0.06   6:  0.33   7: 10.41   8:  2.29
   9:  2.46  10:  2.10  11:  4.86  12:  7.82  13: 79.22  14: 29.03  15: 27.22  16:  4.39
  17:  8.63  18: 11.91  19: 26.25  20:  6.19  21: 31.04  22: 49.81  23:207.93  24: 44.49
  25: 59.63  26: 25.21  27:118.12  28:  8.99  29: 38.92  30: 33.69  31: 53.57  32: 15.46
  33: 50.36  34: 19.62  35:  8.57  36: 66.47  37: 13.26  38: 20.89  39:205.25  40: 29.83
  41: 65.83  42:137.02  43: 47.37  44: 18.97  45:  9.64  46: 44.45  47: 18.83  48: 25.49
  49:196.15  50: 50.90  51: 78.40  52: 27.70  53: 41.86  54:  9.47  55: 11.22  56: 19.69
  57:  5.47  58:376.22  59:  3.41  60:  0.51  61:218.52  62:  3.62  63: 41.58  64:396.39
  65: 42.79  66: 42.79  67: 39.79  68: 12.39  69: 51.55  70: 31.22  71: 27.13  72: 92.04
  73: 31.78  74: 33.79  75:  3.12  76: 32.92  77:  8.48  78: 28.18
 Raman intensities (amu)
   1:  0.00   2:  0.00   3:  0.00   4:  0.00   5:  0.00   6:  0.00   7:  0.00   8:  0.00
   9:  0.00  10:  0.00  11:  0.00  12:  0.00  13:  0.00  14:  0.00  15:  0.00  16:  0.00
  17:  0.00  18:  0.00  19:  0.00  20:  0.00  21:  0.00  22:  0.00  23:  0.00  24:  0.00
  25:  0.00  26:  0.00  27:  0.00  28:  0.00  29:  0.00  30:  0.00  31:  0.00  32:  0.00
  33:  0.00  34:  0.00  35:  0.00  36:  0.00  37:  0.00  38:  0.00  39:  0.00  40:  0.00
  41:  0.00  42:  0.00  43:  0.00  44:  0.00  45:  0.00  46:  0.00  47:  0.00  48:  0.00
  49:  0.00  50:  0.00  51:  0.00  52:  0.00  53:  0.00  54:  0.00  55:  0.00  56:  0.00
  57:  0.00  58:  0.00  59:  0.00  60:  0.00  61:  0.00  62:  0.00  63:  0.00  64:  0.00
  65:  0.00  66:  0.00  67:  0.00  68:  0.00  69:  0.00  70:  0.00  71:  0.00  72:  0.00
  73:  0.00  74:  0.00  75:  0.00  76:  0.00  77:  0.00  78:  0.00
 output can be read by thermo (or use thermo option).
 writing <g98.out> molden fake output.
 recommended (thermochemical) frequency scaling factor: 1.0
           -------------------------------------------------
          |             Thermodynamic Functions             |
           -------------------------------------------------

Molecule has no symmetry elements
It seems to be the C1 point group
c1  symmetry found (for desy threshold:  0.10E+00) used in thermo

          ...................................................
          :                      SETUP                      :
          :.................................................:
          :  # frequencies                          72      :
          :  # imaginary freq.                       0      :
          :  linear?                             false      :
          :  only rotor calc.                    false      :
          :  symmetry                               c1      :
          :  rotational number                       1      :
          :  scaling factor                  1.0000000      :
          :  rotor cutoff                   50.0000000 cm⁻¹ :
          :  imag. cutoff                  -20.0000000 cm⁻¹ :
          :.................................................:

    mode    ω/cm⁻¹     T·S(HO)/kcal·mol⁻¹    T·S(FR)/kcal·mol⁻¹   T·S(vib)
   ------------------------------------------------------------------------
       1     74.87    -1.19889 ( 83.41%)    -0.93683 ( 16.59%)    -1.15541
       2     79.06    -1.16697 ( 86.21%)    -0.92069 ( 13.79%)    -1.13301
       3    125.94    -0.89657 ( 97.58%)    -0.78281 (  2.42%)    -0.89381
       4    203.78    -0.62573 ( 99.64%)    -0.64028 (  0.36%)    -0.62578
       5    237.21    -0.54374 ( 99.80%)    -0.59528 (  0.20%)    -0.54384
       6    258.35    -0.49878 ( 99.86%)    -0.57000 (  0.14%)    -0.49888
       7    298.88    -0.42432 ( 99.92%)    -0.52683 (  0.08%)    -0.42440
   ------------------------------------------------------------------------

   temp. (K)  partition function   enthalpy   heat capacity  entropy
                                   cal/mol     cal/K/mol   cal/K/mol   J/K/mol
 298.15  VIB   936.                 5818.982     42.829     32.847
         ROT  0.864E+06              888.752      2.981     30.146
         INT  0.809E+09             6707.735     45.810     62.993
         TR   0.222E+28             1481.254      4.968     41.354
         TOT                        8188.9885    50.7781   104.3471   436.5882

       T/K    H(0)-H(T)+PV         H(T)/Eh          T*S/Eh         G(T)/Eh
   ------------------------------------------------------------------------
    298.15    0.130500E-01    0.229698E+00    0.495787E-01    0.180119E+00
   ------------------------------------------------------------------------

         :::::::::::::::::::::::::::::::::::::::::::::::::::::
         ::                  THERMODYNAMIC                  ::
         :::::::::::::::::::::::::::::::::::::::::::::::::::::
         :: total free energy         -39.647404456577 Eh   ::
         ::.................................................::
         :: total energy              -39.827523486274 Eh   ::
         :: zero point energy           0.216647707209 Eh   ::
         :: G(RRHO) w/o ZPVE           -0.036528677513 Eh   ::
         :: G(RRHO) contrib.            0.180119029696 Eh   ::
         :::::::::::::::::::::::::::::::::::::::::::::::::::::

optimized geometry written to: xtbopt.xyz


           -------------------------------------------------
          | TOTAL ENERGY              -39.827523486274 Eh   |
          | TOTAL ENTHALPY            -39.597825795258 Eh   |
          | TOTAL FREE ENERGY         -39.647404456577 Eh   |
          | GRADIENT NORM               0.000063664941 Eh/α |
          | HOMO-LUMO GAP               4.964018771614 eV   |
           -------------------------------------------------

------------------------------------------------------------------------
 * finished run on 2025/07/30 at 12:34:51.262     
------------------------------------------------------------------------
 total:
 * wall-time:     0 d,  0 h,  0 min,  1.058 sec
 *  cpu-time:     0 d,  0 h,  0 min,  8.316 sec
 * ratio c/w:     7.863 speedup
 SCF:
 * wall-time:     0 d,  0 h,  0 min,  0.022 sec
 *  cpu-time:     0 d,  0 h,  0 min,  0.171 sec
 * ratio c/w:     7.832 speedup
 ANC optimizer:
 * wall-time:     0 d,  0 h,  0 min,  0.070 sec
 *  cpu-time:     0 d,  0 h,  0 min,  0.554 sec
 * ratio c/w:     7.864 speedup
 analytical hessian:
 * wall-time:     0 d,  0 h,  0 min,  0.945 sec
 *  cpu-time:     0 d,  0 h,  0 min,  7.440 sec
 * ratio c/w:     7.877 speedup

