26
 energy: -39.827523486274 gnorm: 0.000063664416 xtb: 6.6.0 (8843059)
C           -0.78560201130285        2.08930013801093        0.01408409579717
C           -1.99417230719517        1.16884522785994       -0.12238807900659
C           -1.61886879387458       -0.28198218233061        0.19555414308100
C           -0.39729612960724       -0.74403103670707       -0.63995431461060
O           -0.77405400421157       -0.78665738971330       -1.97248392508798
O           -0.04279542678166       -2.02982617527275       -0.22879230793923
N           -1.28443138478497       -0.55923350305922        1.58806145957154
C            0.34909114170537        1.54955068632380       -0.85133792301546
N            0.72513027064880        0.18810534609264       -0.49110585949484
C            1.62666530907978        0.06630146375824        0.56204120613965
N            2.34643320326000       -1.10504329129472        0.56986573803007
N            1.81756820718415        1.05477782543445        1.34196581456838
H           -1.04499584933881        3.09831693559247       -0.30712475979569
H           -0.43860215226415        2.13763912409151        1.04710680017729
H           -2.36064472897134        1.20019335374964       -1.14967485449322
H           -2.80294433202882        1.48507962227173        0.54206619222545
H           -2.44971421957529       -0.94230831616161       -0.08182180424142
H           -0.38501582107493       -2.13519380470608        0.67574107054460
H           -0.53279411321402        0.05872807934961        1.88482975732276
H           -2.08432933113503       -0.37212727781546        2.18221292519539
H            0.03859837286950        1.52854848262671       -1.89952480254100
H            1.24039675096829        2.16483721327962       -0.74029510813259
H            1.95698835048940       -1.88290114213481        0.05995945505257
H            2.82905998336807       -1.33436132792070        1.42380345357817
H            2.57976876417889        0.91499997899155        1.99767439794036
H           -0.06557997262632       -1.21238496893901       -2.47076365511213
