26
 energy: -39.827523486273 gnorm: 0.000063638941 xtb: 6.6.0 (8843059)
C           -0.78561300000000        2.08929600000000        0.01408500000000
C           -1.99417800000000        1.16883500000000       -0.12239300000000
C           -1.61886800000000       -0.28199100000000        0.19554800000000
C           -0.39729000000000       -0.74403200000000       -0.63995700000000
O           -0.77404300000000       -0.78665800000000       -1.97248800000000
O           -0.04278400000000       -2.02982600000000       -0.22879600000000
N           -1.28443400000000       -0.55924300000000        1.58805600000000
C            0.34908600000000        1.54955400000000       -0.85133400000000
N            0.72513100000000        0.18811000000000       -0.49110300000000
C            1.62666300000000        0.06630900000000        0.56204700000000
N            2.34643700000000       -1.10503200000000        0.56987200000000
N            1.81755800000000        1.05478500000000        1.34197400000000
H           -1.04501100000000        3.09831200000000       -0.30712300000000
H           -0.43861700000000        2.13763500000000        1.04710900000000
H           -2.36064700000000        1.20018300000000       -1.14968100000000
H           -2.80295400000000        1.48506400000000        0.54205900000000
H           -2.44970900000000       -0.94232100000000       -0.08183200000000
H           -0.38500700000000       -2.13519700000000        0.67573600000000
H           -0.53280100000000        0.05872200000000        1.88482800000000
H           -2.08433500000000       -0.37214200000000        2.18220500000000
H            0.03859700000000        1.52855200000000       -1.89952200000000
H            1.24038800000000        2.16484500000000       -0.74028700000000
H            1.95699800000000       -1.88289100000000        0.05996300000000
H            2.82906200000000       -1.33434900000000        1.42381100000000
H            2.57975700000000        0.91501000000000        1.99768500000000
H           -0.06556500000000       -1.21238100000000       -2.47076600000000
