13
 energy: -21.041661409367 gnorm: 0.000052146623 xtb: 6.6.0 (8843059)
C           -1.06945604961737       -1.45534861507423        0.44994127315496
C           -0.76781430160331        0.05588772315469        0.40272758264615
C            0.71916151134835        0.20193946147737        0.13005613720001
O            1.56181415529982        0.33479052352973        0.97468996391971
O            1.01464644841729        0.10215564408711       -1.17069272009581
N           -1.53466489108272        0.79163601746487       -0.58328502465039
H           -0.86412179994637       -1.90767938117484       -0.51891165414818
H           -0.45472195729702       -1.94024751820161        1.20373397362768
H           -2.11706701470077       -1.61406869680797        0.69803020703445
H           -0.96700357433000        0.49325848471738        1.38741551460921
H            1.97201244101387        0.18828040215236       -1.30200621225779
H           -1.29016777329850        0.48226210610643       -1.51787733816201
H           -2.52622024399958        0.63151045198722       -0.44419428399024
