26
 energy: -39.828429726794 gnorm: 0.000043376917 xtb: 6.6.0 (8843059)
C           -0.89427300000000        2.27053600000000       -0.21889200000000
C           -2.03721100000000        1.31350400000000        0.08838400000000
C           -1.71742700000000       -0.05090800000000       -0.50987700000000
C           -0.34857000000000       -0.59393500000000       -0.03042000000000
O           -0.09847600000000       -1.68454700000000       -0.85911800000000
O           -0.43987600000000       -0.99904400000000        1.31713100000000
N           -2.70087600000000       -1.03682100000000       -0.07795000000000
C            0.38557300000000        1.71020300000000        0.38265700000000
N            0.69251200000000        0.39851800000000       -0.17194400000000
C            2.03306300000000       -0.01139500000000       -0.06042600000000
N            2.23662300000000       -1.28864900000000        0.43434600000000
N            3.03909000000000        0.64945400000000       -0.44800400000000
H           -0.77720600000000        2.37214800000000       -1.29921400000000
H           -1.09204400000000        3.25525500000000        0.20589900000000
H           -2.97773900000000        1.68045400000000       -0.32662700000000
H           -2.15645300000000        1.20708200000000        1.16854900000000
H           -1.64162000000000        0.03741500000000       -1.60549800000000
H           -1.34989200000000       -1.31273800000000        1.44396100000000
H           -3.63123500000000       -0.75087000000000       -0.36221200000000
H           -2.49405200000000       -1.92438600000000       -0.52645900000000
H            1.23033200000000        2.36909000000000        0.17469900000000
H            0.26895500000000        1.63392700000000        1.47465800000000
H            3.21780000000000       -1.47967400000000        0.57592600000000
H            1.64281400000000       -1.53091900000000        1.21807400000000
H            2.82669300000000        1.52649200000000       -0.90790200000000
H            0.80510100000000       -2.00113200000000       -0.68789400000000
