 Entering Gaussian System
 *********************************************
 Gaussian 98:
 frequency output generated by the xtb code
 *********************************************
                         Standard orientation:
 --------------------------------------------------------------------
  Center     Atomic     Atomic              Coordinates (Angstroms)
  Number     Number      Type              X           Y           Z
 --------------------------------------------------------------------
    1          6             0       -1.069456   -1.455349    0.449941
    2          6             0       -0.767814    0.055888    0.402728
    3          6             0        0.719162    0.201939    0.130056
    4          8             0        1.561814    0.334791    0.974690
    5          8             0        1.014647    0.102156   -1.170693
    6          7             0       -1.534665    0.791636   -0.583285
    7          1             0       -0.864122   -1.907680   -0.518912
    8          1             0       -0.454722   -1.940248    1.203734
    9          1             0       -2.117067   -1.614069    0.698030
   10          1             0       -0.967004    0.493259    1.387416
   11          1             0        1.972013    0.188280   -1.302006
   12          1             0       -1.290168    0.482262   -1.517877
   13          1             0       -2.526220    0.631511   -0.444194
 --------------------------------------------------------------------
     1 basis functions        1 primitive gaussians
     1 alpha electrons        1 beta electrons
 
 Harmonic frequencies (cm**-1), IR intensities (km*mol⁻¹),
 Raman scattering activities (A**4/amu), Raman depolarization ratios,
 reduced masses (AMU), force constants (mDyne/A) and normal coordinates:
                      1                      2                      3
                        a                      a                      a 
 Frequencies --    50.9603               206.8466               214.6245
 Red. masses --    13.3158                 7.8687                 4.1350
 Frc consts  --     0.0000                 0.0000                 0.0000
 IR Inten    --     1.8192                 4.3139                 0.3407
 Raman Activ --     0.0000                 0.0000                 0.0000
 Depolar     --     0.0000                 0.0000                 0.0000
 Atom AN      X      Y      Z        X      Y      Z        X      Y      Z
   1   6     0.03   0.10   0.37     0.42   0.15  -0.07    -0.32  -0.07   0.07
   2   6    -0.01   0.10  -0.06    -0.06   0.25  -0.06     0.05  -0.15  -0.03
   3   6    -0.00   0.00  -0.03    -0.06   0.08  -0.01     0.05  -0.05  -0.04
   4   8     0.01  -0.55   0.04    -0.12  -0.25   0.10    -0.03   0.17   0.01
   5   8     0.00   0.54  -0.07     0.06  -0.23   0.04     0.19   0.14  -0.03
   6   7    -0.03  -0.21  -0.28    -0.33   0.08   0.01     0.11  -0.08  -0.02
   7   1     0.01  -0.05   0.14    -0.10   0.13  -0.11    -0.57   0.04  -0.11
   8   1     0.01   0.10   0.15     0.38   0.06  -0.23     0.20  -0.14  -0.29
   9   1     0.01   0.04   0.12     0.21  -0.08   0.27     0.01   0.06   0.49
  10   1    -0.01   0.10  -0.05    -0.02   0.05  -0.01     0.05  -0.02  -0.01
  11   1     0.01   0.11  -0.00     0.03  -0.19   0.04     0.04   0.12   0.01
  12   1     0.01  -0.11  -0.05     0.00   0.13  -0.01    -0.02  -0.06  -0.00
  13   1    -0.01  -0.07  -0.08    -0.07  -0.16  -0.05     0.02   0.04   0.03
                      4                      5                      6
                        a                      a                      a 
 Frequencies --   251.7034               280.3019               353.4482
 Red. masses --     4.9192                 8.6843                10.3284
 Frc consts  --     0.0000                 0.0000                 0.0000
 IR Inten    --    24.5464                18.9647                 4.2114
 Raman Activ --     0.0000                 0.0000                 0.0000
 Depolar     --     0.0000                 0.0000                 0.0000
 Atom AN      X      Y      Z        X      Y      Z        X      Y      Z
   1   6     0.04   0.02   0.00    -0.20   0.03   0.09     0.20  -0.25   0.27
   2   6     0.02   0.02  -0.12     0.07  -0.03  -0.07    -0.08  -0.17  -0.11
   3   6     0.04  -0.01  -0.13     0.07  -0.03  -0.17    -0.15  -0.12  -0.16
   4   8    -0.16  -0.04   0.07    -0.09   0.03  -0.03    -0.41   0.02   0.01
   5   8     0.38  -0.02  -0.05     0.48   0.02  -0.13     0.05   0.01  -0.15
   6   7    -0.23   0.01   0.08    -0.37  -0.01   0.28     0.29   0.40   0.08
   7   1     0.07  -0.03   0.03     0.01  -0.07   0.08     0.08  -0.18   0.13
   8   1    -0.03   0.04   0.06    -0.18   0.01   0.13     0.13   0.09   0.13
   9   1    -0.00   0.01  -0.06    -0.10   0.10  -0.07     0.08  -0.15   0.13
  10   1     0.06   0.02  -0.03     0.09  -0.02   0.00     0.01  -0.06  -0.02
  11   1     0.10   0.00   0.05     0.13   0.01   0.06     0.01   0.07   0.01
  12   1    -0.49  -0.33   0.02     0.13   0.34   0.02     0.11   0.24  -0.01
  13   1    -0.07   0.40   0.41    -0.06  -0.41  -0.10     0.05   0.21  -0.07
                      7                      8                      9
                        a                      a                      a 
 Frequencies --   526.4401               568.7599               607.4716
 Red. masses --    11.9011                10.1297                 3.9136
 Frc consts  --     0.0000                 0.0000                 0.0000
 IR Inten    --    14.5873                40.5285                87.1955
 Raman Activ --     0.0000                 0.0000                 0.0000
 Depolar     --     0.0000                 0.0000                 0.0000
 Atom AN      X      Y      Z        X      Y      Z        X      Y      Z
   1   6     0.06   0.24  -0.07    -0.02  -0.01   0.00    -0.06  -0.16   0.02
   2   6     0.26   0.10   0.24    -0.27   0.07   0.39     0.09  -0.09  -0.11
   3   6    -0.02  -0.01  -0.20    -0.33   0.11  -0.07     0.06   0.34  -0.04
   4   8    -0.51  -0.02   0.22    -0.01  -0.06  -0.44    -0.01  -0.00   0.11
   5   8    -0.08  -0.02  -0.30     0.34   0.07   0.06    -0.09   0.18  -0.06
   6   7     0.27  -0.25   0.16     0.15  -0.10   0.04     0.06  -0.03   0.04
   7   1     0.02   0.18  -0.07     0.05   0.14  -0.06    -0.07  -0.13   0.03
   8   1    -0.05  -0.08  -0.06     0.02  -0.06  -0.05    -0.06  -0.05   0.04
   9   1    -0.01   0.12  -0.09     0.00  -0.11  -0.05    -0.03   0.07   0.03
  10   1     0.17   0.06   0.07    -0.08   0.02   0.10    -0.01  -0.07  -0.01
  11   1    -0.03  -0.01  -0.12     0.15  -0.17   0.33     0.06  -0.84   0.00
  12   1     0.11  -0.17   0.08     0.14  -0.15   0.08    -0.01   0.04  -0.01
  13   1     0.08  -0.11   0.02     0.01   0.10  -0.11     0.01   0.04   0.03
                     10                     11                     12
                        a                      a                      a 
 Frequencies --   726.7213               811.7654               935.5523
 Red. masses --    10.7039                 9.8472                 6.9220
 Frc consts  --     0.0000                 0.0000                 0.0000
 IR Inten    --   125.0959                16.9890               136.8347
 Raman Activ --     0.0000                 0.0000                 0.0000
 Depolar     --     0.0000                 0.0000                 0.0000
 Atom AN      X      Y      Z        X      Y      Z        X      Y      Z
   1   6    -0.05  -0.16   0.01     0.14   0.19  -0.08    -0.01  -0.34   0.03
   2   6     0.02  -0.03  -0.01     0.33  -0.09  -0.29     0.22   0.18   0.10
   3   6    -0.04   0.79  -0.07    -0.31  -0.01   0.01    -0.04  -0.02  -0.04
   4   8     0.01  -0.25   0.04    -0.13  -0.04  -0.30    -0.07  -0.00  -0.05
   5   8     0.04  -0.29  -0.02    -0.12   0.01   0.41    -0.03   0.02   0.08
   6   7     0.06  -0.02   0.04     0.14  -0.10   0.09    -0.06   0.47  -0.18
   7   1    -0.07  -0.11   0.02    -0.09  -0.13   0.04    -0.02  -0.09   0.00
   8   1    -0.06  -0.06   0.02    -0.05   0.06   0.05    -0.05  -0.17  -0.00
   9   1    -0.03   0.07   0.02     0.01   0.31   0.04    -0.01  -0.05  -0.00
  10   1    -0.06  -0.08   0.02     0.09  -0.07  -0.06     0.14   0.03   0.04
  11   1    -0.04   0.35  -0.07     0.00   0.04   0.31     0.00  -0.00   0.08
  12   1     0.04  -0.01   0.02    -0.08   0.09  -0.05    -0.07  -0.45   0.10
  13   1     0.01   0.04  -0.02     0.07  -0.10   0.16     0.06  -0.47   0.03
                     13                     14                     15
                        a                      a                      a 
 Frequencies --   942.8327              1011.1698              1070.0738
 Red. masses --     3.9620                 4.0779                 9.7631
 Frc consts  --     0.0000                 0.0000                 0.0000
 IR Inten    --    42.7909                17.2366                53.4558
 Raman Activ --     0.0000                 0.0000                 0.0000
 Depolar     --     0.0000                 0.0000                 0.0000
 Atom AN      X      Y      Z        X      Y      Z        X      Y      Z
   1   6     0.12  -0.27   0.25     0.34  -0.00  -0.10    -0.10  -0.35  -0.21
   2   6     0.19   0.15   0.04    -0.06   0.02   0.17     0.02   0.67  -0.04
   3   6    -0.03  -0.02  -0.02    -0.01  -0.14   0.08    -0.04  -0.11   0.07
   4   8    -0.04  -0.00  -0.03     0.03   0.04   0.04     0.01   0.03   0.02
   5   8    -0.04   0.00   0.07     0.03   0.01  -0.15    -0.01  -0.00  -0.11
   6   7    -0.11  -0.05  -0.15    -0.19   0.07  -0.08     0.11  -0.26   0.15
   7   1    -0.02   0.28  -0.11    -0.21  -0.26   0.04    -0.07  -0.35   0.06
   8   1    -0.15  -0.54  -0.09    -0.18  -0.16   0.09     0.01   0.13   0.06
   9   1    -0.04   0.08  -0.15     0.01   0.55   0.05     0.00  -0.05   0.08
  10   1     0.09   0.26  -0.08    -0.10  -0.25   0.14    -0.07   0.13  -0.01
  11   1    -0.00   0.03   0.06     0.01   0.02   0.01     0.01   0.05   0.09
  12   1    -0.06   0.36  -0.16     0.14  -0.13   0.08     0.06   0.11   0.00
  13   1    -0.05   0.23   0.01    -0.11   0.22  -0.24     0.03   0.07   0.11
                     16                     17                     18
                        a                      a                      a 
 Frequencies --  1079.3937              1151.4389              1196.5732
 Red. masses --     6.1638                 6.1925                 7.7305
 Frc consts  --     0.0000                 0.0000                 0.0000
 IR Inten    --   148.8112               121.8189                 3.4822
 Raman Activ --     0.0000                 0.0000                 0.0000
 Depolar     --     0.0000                 0.0000                 0.0000
 Atom AN      X      Y      Z        X      Y      Z        X      Y      Z
   1   6    -0.09  -0.06  -0.08     0.13  -0.03   0.05     0.05  -0.00   0.15
   2   6     0.10   0.07   0.00    -0.29   0.12  -0.15    -0.22   0.05  -0.56
   3   6     0.16   0.01  -0.27     0.03  -0.06  -0.08    -0.02   0.00   0.09
   4   8    -0.09  -0.02  -0.10    -0.10  -0.01  -0.18     0.13   0.02   0.10
   5   8    -0.04   0.04   0.44     0.17   0.05   0.33    -0.09  -0.02  -0.14
   6   7    -0.19  -0.07   0.01     0.16  -0.02   0.18     0.05  -0.01   0.33
   7   1     0.03  -0.08   0.02    -0.07   0.01  -0.02    -0.00   0.16  -0.05
   8   1     0.05   0.12   0.01    -0.08  -0.16  -0.00    -0.03  -0.17  -0.05
   9   1     0.00  -0.12   0.02    -0.01   0.14  -0.03    -0.02   0.02  -0.09
  10   1     0.50  -0.01   0.11    -0.26   0.09  -0.10     0.17   0.09  -0.13
  11   1    -0.05  -0.02  -0.19    -0.06  -0.06  -0.64     0.02   0.03   0.26
  12   1     0.23  -0.09   0.10    -0.01  -0.08   0.05     0.21  -0.32   0.23
  13   1    -0.13   0.32  -0.30     0.06  -0.15   0.08    -0.04   0.04  -0.19
                     19                     20                     21
                        a                      a                      a 
 Frequencies --  1251.3942              1269.8930              1336.3006
 Red. masses --     8.6249                 3.6572                 5.3806
 Frc consts  --     0.0000                 0.0000                 0.0000
 IR Inten    --   136.0303                 3.0721                12.6126
 Raman Activ --     0.0000                 0.0000                 0.0000
 Depolar     --     0.0000                 0.0000                 0.0000
 Atom AN      X      Y      Z        X      Y      Z        X      Y      Z
   1   6    -0.03  -0.02  -0.01     0.11  -0.04  -0.22     0.12   0.03   0.02
   2   6     0.11  -0.02  -0.07    -0.21  -0.28   0.20    -0.52   0.11  -0.00
   3   6    -0.49   0.03   0.55     0.01   0.05  -0.02     0.09   0.02  -0.12
   4   8     0.06  -0.00  -0.07     0.04  -0.00   0.05     0.07   0.01   0.08
   5   8     0.20   0.00  -0.20    -0.02  -0.01  -0.03    -0.04  -0.01   0.02
   6   7    -0.03  -0.00  -0.06     0.03   0.05   0.03     0.17  -0.06  -0.13
   7   1     0.04   0.02  -0.00    -0.07  -0.19   0.01    -0.09  -0.04  -0.00
   8   1     0.03   0.05  -0.00    -0.04   0.10   0.07    -0.09  -0.10   0.03
   9   1    -0.00  -0.01   0.01     0.02   0.18   0.07     0.01   0.03  -0.03
  10   1     0.40   0.00   0.06     0.23   0.74  -0.24     0.52  -0.25   0.26
  11   1    -0.01  -0.05  -0.40     0.01  -0.00   0.05     0.00   0.01   0.08
  12   1     0.03   0.01  -0.01    -0.07   0.01  -0.02    -0.13   0.17  -0.13
  13   1    -0.00   0.03   0.03     0.00  -0.05  -0.03     0.10  -0.18   0.26
                     22                     23                     24
                        a                      a                      a 
 Frequencies --  1393.1066              1488.5185              1490.4425
 Red. masses --     2.9961                 1.6013                 1.5909
 Frc consts  --     0.0000                 0.0000                 0.0000
 IR Inten    --     4.5368                 1.4423                 5.7396
 Raman Activ --     0.0000                 0.0000                 0.0000
 Depolar     --     0.0000                 0.0000                 0.0000
 Atom AN      X      Y      Z        X      Y      Z        X      Y      Z
   1   6     0.06   0.41  -0.03    -0.12   0.00  -0.19    -0.18   0.03   0.11
   2   6     0.05  -0.02  -0.00    -0.04   0.02  -0.04    -0.07   0.01   0.03
   3   6    -0.03   0.01   0.05     0.01  -0.00  -0.01     0.01  -0.01  -0.02
   4   8    -0.01  -0.01  -0.01     0.00   0.00   0.00     0.01   0.00   0.01
   5   8     0.01  -0.00  -0.02    -0.01   0.00   0.01    -0.00   0.00   0.00
   6   7    -0.01  -0.00   0.01     0.02  -0.01   0.02     0.02  -0.00   0.00
   7   1    -0.11  -0.48   0.21     0.57   0.13   0.05     0.39  -0.30   0.24
   8   1    -0.22  -0.45  -0.14    -0.26  -0.23   0.04     0.47  -0.17  -0.49
   9   1     0.09  -0.50   0.00     0.14   0.10   0.67    -0.11   0.34  -0.18
  10   1    -0.02   0.06  -0.03     0.01  -0.03   0.01     0.03   0.02   0.01
  11   1     0.00   0.00  -0.01    -0.00  -0.00   0.01     0.00  -0.00   0.00
  12   1     0.02  -0.00   0.01    -0.03   0.00  -0.01    -0.04   0.01  -0.01
  13   1    -0.01   0.03  -0.01     0.00  -0.01  -0.03     0.00  -0.02  -0.01
                     25                     26                     27
                        a                      a                      a 
 Frequencies --  1549.3631              1798.8090              2943.0314
 Red. masses --     2.0802                13.2882                 1.7452
 Frc consts  --     0.0000                 0.0000                 0.0000
 IR Inten    --    42.6533               454.2374                24.5256
 Raman Activ --     0.0000                 0.0000                 0.0000
 Depolar     --     0.0000                 0.0000                 0.0000
 Atom AN      X      Y      Z        X      Y      Z        X      Y      Z
   1   6     0.00  -0.00   0.00    -0.00  -0.01  -0.00     0.00   0.00  -0.02
   2   6     0.03   0.09   0.01    -0.07  -0.00  -0.01    -0.05   0.10   0.23
   3   6    -0.03  -0.01   0.02     0.58   0.09   0.53    -0.00   0.00   0.01
   4   8     0.01   0.00   0.00    -0.42  -0.07  -0.41    -0.00  -0.00  -0.00
   5   8     0.01   0.00  -0.01    -0.03  -0.01  -0.06     0.00  -0.00  -0.00
   6   7     0.18  -0.04   0.19    -0.00  -0.00  -0.00     0.00  -0.00   0.01
   7   1    -0.04  -0.01  -0.01     0.00  -0.00   0.00    -0.01   0.03   0.06
   8   1    -0.01   0.01   0.01     0.01   0.00  -0.00     0.01  -0.01   0.01
   9   1    -0.00  -0.04  -0.03    -0.00   0.01  -0.00    -0.02  -0.00   0.00
  10   1     0.04  -0.07   0.05     0.05   0.01   0.02     0.18  -0.38  -0.86
  11   1     0.00  -0.00  -0.01     0.01   0.01   0.10    -0.00  -0.00   0.00
  12   1    -0.66   0.01  -0.18    -0.01   0.00  -0.00     0.00   0.01   0.01
  13   1    -0.08  -0.07  -0.65    -0.00   0.00  -0.00     0.00  -0.00   0.00
                     28                     29                     30
                        a                      a                      a 
 Frequencies --  3026.3167              3028.5741              3045.2632
 Red. masses --     1.9635                 1.5200                 1.6730
 Frc consts  --     0.0000                 0.0000                 0.0000
 IR Inten    --    31.5034                22.3921                17.1048
 Raman Activ --     0.0000                 0.0000                 0.0000
 Depolar     --     0.0000                 0.0000                 0.0000
 Atom AN      X      Y      Z        X      Y      Z        X      Y      Z
   1   6     0.22  -0.05  -0.19    -0.14  -0.09  -0.14     0.13  -0.11   0.18
   2   6     0.01  -0.01  -0.02    -0.00  -0.01  -0.01     0.00  -0.00   0.01
   3   6    -0.00  -0.00  -0.00     0.00  -0.00  -0.00     0.00  -0.00   0.00
   4   8     0.00   0.00   0.00     0.00   0.00   0.00    -0.00   0.00  -0.00
   5   8    -0.00   0.00   0.00     0.00   0.00   0.00     0.00   0.00  -0.00
   6   7    -0.00   0.00   0.00     0.00   0.00   0.00    -0.00  -0.00  -0.00
   7   1    -0.10   0.26   0.58    -0.16   0.29   0.64     0.01  -0.00   0.04
   8   1     0.01   0.01  -0.06     0.02  -0.04   0.03    -0.55   0.42  -0.67
   9   1    -0.68  -0.10   0.14     0.63   0.08  -0.18     0.09  -0.00   0.01
  10   1    -0.01   0.02   0.05    -0.01   0.01   0.04     0.00  -0.01  -0.01
  11   1     0.00  -0.00   0.00    -0.00  -0.00   0.00    -0.00  -0.00   0.00
  12   1     0.00  -0.00  -0.00     0.00  -0.00  -0.00    -0.00   0.00   0.00
  13   1     0.00   0.00  -0.00    -0.00  -0.00   0.00     0.00   0.00  -0.00
                     31                     32                     33
                        a                      a                      a 
 Frequencies --  3393.4778              3425.5440              3447.6482
 Red. masses --     1.5000                 2.0849                 1.8500
 Frc consts  --     0.0000                 0.0000                 0.0000
 IR Inten    --     7.6618                 1.8863                32.9670
 Raman Activ --     0.0000                 0.0000                 0.0000
 Depolar     --     0.0000                 0.0000                 0.0000
 Atom AN      X      Y      Z        X      Y      Z        X      Y      Z
   1   6     0.00  -0.00   0.00    -0.00   0.00   0.00    -0.00  -0.00  -0.00
   2   6    -0.00  -0.01  -0.01    -0.00   0.00   0.01     0.00   0.00   0.00
   3   6     0.00   0.00  -0.00     0.00  -0.00   0.00    -0.01   0.00   0.01
   4   8    -0.00  -0.00  -0.00    -0.00  -0.00  -0.00    -0.00  -0.00  -0.00
   5   8     0.00   0.00  -0.00    -0.01  -0.00   0.00    -0.23  -0.02   0.03
   6   7    -0.14  -0.06  -0.13    -0.21   0.03   0.19     0.01  -0.00  -0.01
   7   1    -0.00   0.00   0.00     0.00  -0.00  -0.00    -0.00   0.00   0.00
   8   1     0.00  -0.00   0.00    -0.00   0.00  -0.00    -0.00   0.00  -0.00
   9   1     0.00   0.00  -0.00     0.00   0.00  -0.00     0.00   0.00  -0.00
  10   1    -0.00   0.00   0.01     0.00  -0.00  -0.00    -0.00  -0.00  -0.00
  11   1    -0.02  -0.00   0.00     0.03   0.00  -0.01     0.96   0.09  -0.15
  12   1    -0.19   0.17   0.61     0.17  -0.21  -0.66    -0.01   0.01   0.03
  13   1     0.71   0.08  -0.13     0.63   0.10  -0.08    -0.01  -0.00   0.00
