13
 energy: -21.041661409366 gnorm: 0.000052125136 xtb: 6.6.0 (8843059)
C           -1.06945000000000       -1.45535500000000        0.44993500000000
C           -0.76781600000000        0.05588300000000        0.40272500000000
C            0.71916000000000        0.20194300000000        0.13005900000000
O            1.56180900000000        0.33479700000000        0.97469600000000
O            1.01465000000000        0.10216300000000       -1.17068900000000
N           -1.53466700000000        0.79162900000000       -0.58328900000000
H           -0.86411000000000       -1.90768300000000       -0.51891800000000
H           -0.45471600000000       -1.94025200000000        1.20372900000000
H           -2.11706100000000       -1.61408100000000        0.69802000000000
H           -0.96701100000000        0.49325100000000        1.38741300000000
H            1.97201600000000        0.18829300000000       -1.30199900000000
H           -1.29016500000000        0.48225800000000       -1.51788100000000
H           -2.52622200000000        0.63149800000000       -0.44420200000000
