 Entering Gaussian System
 *********************************************
 Gaussian 98:
 frequency output generated by the xtb code
 *********************************************
                         Standard orientation:
 --------------------------------------------------------------------
  Center     Atomic     Atomic              Coordinates (Angstroms)
  Number     Number      Type              X           Y           Z
 --------------------------------------------------------------------
    1          6             0       -0.523696    2.142818   -0.129589
    2          6             0       -1.749924    1.254863   -0.311977
    3          6             0       -1.341236   -0.188395   -0.657146
    4          6             0       -0.387797   -0.721170    0.442384
    5          8             0        0.008320   -2.019623    0.245601
    6          8             0       -1.041753   -0.679958    1.669738
    7          7             0       -2.455236   -1.106071   -0.782474
    8          6             0        0.396800    1.522826    0.922432
    9          7             0        0.792483    0.182980    0.514049
   10          6             0        1.785407    0.026480   -0.424976
   11          7             0        2.828365    0.935707   -0.354134
   12          7             0        1.727260   -0.909274   -1.294167
   13          1             0        0.019113    2.223191   -1.074572
   14          1             0       -0.822924    3.143923    0.185229
   15          1             0       -2.389375    1.647485   -1.106940
   16          1             0       -2.324522    1.233866    0.617372
   17          1             0       -0.783137   -0.203696   -1.601231
   18          1             0       -0.718016   -1.438341    2.172103
   19          1             0       -2.861461   -1.268522    0.132905
   20          1             0       -3.169182   -0.709583   -1.383766
   21          1             0        1.274274    2.147994    1.081645
   22          1             0       -0.139046    1.419807    1.868539
   23          1             0        3.651238    0.665589   -0.871400
   24          1             0        3.032129    1.339491    0.545396
   25          1             0        2.549119   -0.980802   -1.883009
   26          1             0        0.578518   -2.019847   -0.556554
 --------------------------------------------------------------------
     1 basis functions        1 primitive gaussians
     1 alpha electrons        1 beta electrons
 
 Harmonic frequencies (cm**-1), IR intensities (km*mol⁻¹),
 Raman scattering activities (A**4/amu), Raman depolarization ratios,
 reduced masses (AMU), force constants (mDyne/A) and normal coordinates:
                      1                      2                      3
                        a                      a                      a 
 Frequencies --    57.3650                90.6659               106.5939
 Red. masses --    11.4667                12.2508                10.2485
 Frc consts  --     0.0000                 0.0000                 0.0000
 IR Inten    --     5.1437                 3.9676                 0.9407
 Raman Activ --     0.0000                 0.0000                 0.0000
 Depolar     --     0.0000                 0.0000                 0.0000
 Atom AN      X      Y      Z        X      Y      Z        X      Y      Z
   1   6     0.13   0.01   0.16    -0.09   0.03  -0.03     0.29  -0.06  -0.22
   2   6     0.14   0.04  -0.03    -0.12   0.06   0.09     0.22   0.06  -0.33
   3   6     0.12   0.03  -0.03    -0.18   0.06   0.03    -0.01  -0.09   0.01
   4   6    -0.01  -0.04   0.05    -0.02  -0.00  -0.12     0.00  -0.08   0.01
   5   8    -0.07  -0.07   0.11    -0.08   0.02  -0.30     0.06  -0.06  -0.09
   6   8    -0.12   0.00  -0.01     0.12  -0.10  -0.05    -0.03  -0.21  -0.00
   7   7     0.10   0.09  -0.19    -0.24   0.10   0.22    -0.23   0.11   0.40
   8   6     0.02  -0.11   0.19    -0.03  -0.00  -0.10    -0.07  -0.08   0.08
   9   7     0.03  -0.08   0.09    -0.04   0.02  -0.18    -0.01  -0.08   0.12
  10   6    -0.06  -0.00  -0.02     0.15  -0.05   0.07    -0.05   0.09   0.04
  11   7    -0.33   0.33  -0.49     0.01   0.14   0.00    -0.13   0.17   0.09
  12   7     0.08  -0.25   0.23     0.51  -0.30   0.31    -0.04   0.21  -0.08
  13   1     0.07   0.02   0.06    -0.05   0.00  -0.02     0.15  -0.08  -0.03
  14   1     0.03  -0.00   0.06    -0.01   0.01  -0.00     0.10   0.01  -0.13
  15   1     0.07   0.02  -0.03    -0.06   0.02   0.05     0.13   0.00  -0.16
  16   1     0.01   0.01  -0.03    -0.00   0.02   0.04     0.01   0.10  -0.13
  17   1     0.06   0.01   0.01    -0.09   0.02  -0.02    -0.03  -0.12  -0.01
  18   1    -0.06  -0.01   0.00     0.03  -0.05  -0.05    -0.02  -0.07  -0.02
  19   1    -0.00   0.02  -0.07    -0.01   0.01   0.08    -0.03   0.11   0.14
  20   1     0.05   0.04  -0.07    -0.10   0.05   0.12    -0.06   0.03   0.11
  21   1    -0.00  -0.04   0.11    -0.01   0.00  -0.03    -0.03  -0.04   0.12
  22   1    -0.03  -0.06   0.03    -0.00  -0.01  -0.02    -0.11  -0.03  -0.03
  23   1    -0.09   0.11  -0.15     0.03   0.03   0.05    -0.04   0.08   0.00
  24   1    -0.07   0.18  -0.18    -0.04   0.10  -0.02    -0.03   0.03   0.03
  25   1    -0.00  -0.04   0.03     0.17  -0.08   0.13    -0.02   0.09  -0.04
  26   1     0.03  -0.02   0.06     0.06   0.03  -0.03     0.02   0.01  -0.02
                      4                      5                      6
                        a                      a                      a 
 Frequencies --   213.2191               226.5101               252.3902
 Red. masses --     8.5117                 5.3711                10.5039
 Frc consts  --     0.0000                 0.0000                 0.0000
 IR Inten    --    30.3314                28.9267                 0.6622
 Raman Activ --     0.0000                 0.0000                 0.0000
 Depolar     --     0.0000                 0.0000                 0.0000
 Atom AN      X      Y      Z        X      Y      Z        X      Y      Z
   1   6    -0.07   0.03   0.30     0.17  -0.13  -0.27     0.06  -0.12  -0.00
   2   6     0.04  -0.06  -0.14    -0.00   0.01   0.25     0.05  -0.14   0.22
   3   6     0.02  -0.07  -0.16    -0.01   0.07   0.05    -0.09  -0.13  -0.03
   4   6     0.02   0.04  -0.14    -0.03  -0.00   0.01    -0.03  -0.10  -0.03
   5   8     0.09   0.02   0.11    -0.11  -0.02  -0.07     0.24  -0.09   0.31
   6   8    -0.28   0.24  -0.34    -0.16  -0.04  -0.06    -0.19   0.15  -0.15
   7   7    -0.04  -0.08   0.24     0.09  -0.03  -0.16    -0.37   0.19  -0.10
   8   6     0.03  -0.08   0.15     0.08   0.03  -0.10     0.14  -0.06  -0.06
   9   7     0.03  -0.00  -0.07     0.03  -0.08   0.16    -0.01  -0.09  -0.11
  10   6     0.04   0.00  -0.05    -0.01   0.01   0.07     0.05   0.02  -0.06
  11   7     0.09  -0.06  -0.03    -0.10   0.12   0.04    -0.06   0.17   0.11
  12   7     0.03  -0.01  -0.04    -0.02   0.06   0.03     0.19   0.08  -0.13
  13   1    -0.01   0.13   0.11     0.03  -0.19  -0.10    -0.01  -0.06  -0.02
  14   1    -0.08  -0.04   0.18     0.13   0.02  -0.19     0.03  -0.03  -0.02
  15   1     0.07   0.01  -0.08    -0.09   0.00   0.14    -0.05  -0.02   0.13
  16   1    -0.06  -0.05  -0.09     0.11   0.01   0.14     0.09  -0.07   0.11
  17   1    -0.04  -0.04  -0.07     0.00   0.09   0.01    -0.05  -0.03  -0.02
  18   1     0.03   0.19   0.04     0.13   0.14   0.09     0.05   0.16   0.09
  19   1     0.25  -0.20   0.14     0.29  -0.39   0.00    -0.23   0.21  -0.06
  20   1    -0.19   0.08   0.34    -0.17   0.18   0.31     0.02   0.06  -0.16
  21   1     0.00  -0.02   0.04     0.03  -0.00  -0.05     0.05  -0.03  -0.06
  22   1     0.03  -0.06   0.05     0.01   0.07  -0.03     0.07   0.01   0.00
  23   1     0.03  -0.03   0.01    -0.05   0.08  -0.06    -0.03   0.12  -0.03
  24   1     0.01   0.01  -0.01     0.02  -0.03   0.03     0.03  -0.09   0.08
  25   1     0.01  -0.01  -0.01    -0.02   0.04  -0.02     0.06   0.06  -0.03
  26   1     0.03  -0.02   0.03    -0.04  -0.00  -0.02     0.06  -0.05   0.08
                      7                      8                      9
                        a                      a                      a 
 Frequencies --   258.9638               272.8355               313.2476
 Red. masses --    10.9380                10.1085                 3.9358
 Frc consts  --     0.0000                 0.0000                 0.0000
 IR Inten    --    21.0717                 9.8660                85.6893
 Raman Activ --     0.0000                 0.0000                 0.0000
 Depolar     --     0.0000                 0.0000                 0.0000
 Atom AN      X      Y      Z        X      Y      Z        X      Y      Z
   1   6    -0.09   0.14  -0.02     0.02   0.04  -0.09     0.04  -0.05  -0.02
   2   6     0.05  -0.01  -0.08     0.02  -0.01   0.21    -0.04   0.04   0.04
   3   6     0.05  -0.04   0.03     0.04   0.05  -0.04    -0.07   0.02   0.05
   4   6     0.03  -0.09   0.06     0.05   0.02  -0.06    -0.03  -0.02  -0.03
   5   8     0.41  -0.00   0.16     0.30   0.11  -0.01     0.08   0.06  -0.19
   6   8     0.12  -0.32   0.11    -0.39  -0.24  -0.29    -0.12  -0.05  -0.14
   7   7    -0.23   0.31  -0.27     0.07  -0.01   0.20     0.02  -0.07   0.07
   8   6    -0.12   0.11  -0.02     0.04   0.16  -0.03    -0.09  -0.01   0.11
   9   7    -0.11   0.13  -0.05     0.00   0.11   0.13     0.02   0.02   0.12
  10   6    -0.08  -0.01   0.01    -0.03   0.00   0.08     0.01   0.03   0.07
  11   7     0.03  -0.17  -0.06     0.07  -0.13  -0.16     0.12  -0.13  -0.14
  12   7    -0.12  -0.08   0.08    -0.13  -0.04   0.12    -0.07   0.01   0.09
  13   1    -0.02   0.08   0.00    -0.01  -0.04  -0.04     0.03  -0.08  -0.00
  14   1    -0.06   0.02   0.02     0.02   0.03  -0.07     0.04   0.01  -0.06
  15   1     0.03  -0.04  -0.05    -0.08   0.00   0.14    -0.01   0.02   0.01
  16   1    -0.02   0.01  -0.04     0.10  -0.04   0.12    -0.01   0.03   0.01
  17   1     0.04  -0.02   0.02    -0.04   0.03  -0.04    -0.03   0.01   0.01
  18   1     0.17  -0.01   0.05    -0.33  -0.23  -0.19     0.52   0.44   0.29
  19   1     0.07  -0.14  -0.06    -0.02   0.12   0.06    -0.13   0.13  -0.02
  20   1    -0.13   0.32   0.16     0.05  -0.09  -0.03     0.10  -0.15  -0.18
  21   1    -0.04   0.03   0.02     0.02   0.04  -0.03    -0.04   0.01   0.09
  22   1    -0.05   0.02  -0.02     0.01   0.08  -0.00    -0.07  -0.02   0.01
  23   1     0.03  -0.11   0.05     0.01  -0.10  -0.02     0.07  -0.15   0.08
  24   1    -0.04   0.06  -0.06     0.02   0.06  -0.09    -0.06   0.21  -0.13
  25   1    -0.02  -0.05   0.04    -0.04  -0.03   0.02    -0.03  -0.00   0.02
  26   1     0.10   0.02   0.03     0.10   0.05   0.01     0.00   0.05  -0.07
                     10                     11                     12
                        a                      a                      a 
 Frequencies --   329.3614               361.9566               387.6553
 Red. masses --     6.3868                10.6136                11.0909
 Frc consts  --     0.0000                 0.0000                 0.0000
 IR Inten    --    15.6747                10.9356                 4.7659
 Raman Activ --     0.0000                 0.0000                 0.0000
 Depolar     --     0.0000                 0.0000                 0.0000
 Atom AN      X      Y      Z        X      Y      Z        X      Y      Z
   1   6     0.07  -0.22  -0.06    -0.15  -0.13   0.03     0.16  -0.14   0.06
   2   6    -0.05  -0.07   0.10    -0.04  -0.22  -0.11     0.07  -0.08   0.02
   3   6    -0.08  -0.03  -0.03     0.04  -0.14  -0.06    -0.14  -0.10  -0.15
   4   6     0.02   0.04  -0.04     0.04  -0.04   0.01     0.02   0.09  -0.16
   5   8    -0.07   0.01   0.10    -0.26  -0.12  -0.14     0.22   0.20  -0.20
   6   8     0.14   0.26   0.05     0.03  -0.01  -0.01     0.32   0.25  -0.04
   7   7    -0.14   0.01  -0.12    -0.23   0.12  -0.06    -0.15  -0.16  -0.10
   8   6    -0.18  -0.15   0.18     0.10   0.09  -0.03     0.04   0.05   0.24
   9   7     0.06   0.00  -0.03     0.16   0.00   0.27    -0.11   0.13  -0.03
  10   6     0.09   0.12  -0.04     0.16   0.14   0.21    -0.13   0.00   0.09
  11   7     0.22  -0.06  -0.11     0.31   0.08  -0.20    -0.12  -0.03   0.07
  12   7     0.01   0.13  -0.05    -0.12   0.19   0.23    -0.24  -0.13   0.24
  13   1     0.06  -0.19  -0.01    -0.06   0.01   0.00     0.09  -0.13   0.04
  14   1     0.07  -0.02  -0.12    -0.09  -0.06   0.03     0.04  -0.01  -0.08
  15   1    -0.05   0.00   0.07     0.01  -0.06  -0.05     0.02   0.04   0.04
  16   1     0.03  -0.03   0.06    -0.04  -0.09  -0.05     0.04  -0.03   0.02
  17   1    -0.03   0.01  -0.02     0.01  -0.07  -0.01    -0.07  -0.03  -0.06
  18   1    -0.23  -0.14  -0.12    -0.02  -0.01  -0.01     0.01  -0.01  -0.07
  19   1    -0.00  -0.07  -0.03    -0.07   0.06  -0.01    -0.03  -0.05  -0.02
  20   1    -0.06   0.08   0.04    -0.03   0.13   0.01    -0.05  -0.05  -0.02
  21   1    -0.10  -0.01   0.19     0.04   0.04  -0.15     0.02  -0.01   0.07
  22   1    -0.14  -0.13  -0.01     0.11   0.11   0.05     0.00   0.00   0.06
  23   1     0.18  -0.19   0.26    -0.01  -0.01  -0.19    -0.12   0.07  -0.16
  24   1    -0.18   0.35  -0.14     0.25  -0.00  -0.08     0.12  -0.22   0.08
  25   1    -0.01   0.03  -0.03    -0.08   0.02   0.00    -0.07  -0.11   0.07
  26   1     0.02  -0.01   0.05    -0.06  -0.03  -0.03     0.09   0.10  -0.04
                     13                     14                     15
                        a                      a                      a 
 Frequencies --   399.2498               418.4539               436.5813
 Red. masses --    10.1498                 8.9891                 9.8246
 Frc consts  --     0.0000                 0.0000                 0.0000
 IR Inten    --     1.6216                12.2727                27.8208
 Raman Activ --     0.0000                 0.0000                 0.0000
 Depolar     --     0.0000                 0.0000                 0.0000
 Atom AN      X      Y      Z        X      Y      Z        X      Y      Z
   1   6    -0.04   0.15  -0.06     0.21   0.11   0.11    -0.11  -0.16   0.04
   2   6     0.21  -0.17   0.14     0.26  -0.05  -0.00    -0.07  -0.13  -0.08
   3   6     0.26  -0.06  -0.16    -0.13  -0.20  -0.01     0.08  -0.02   0.00
   4   6     0.13  -0.12  -0.15    -0.17  -0.02   0.03     0.05   0.07   0.08
   5   8    -0.19  -0.29  -0.03    -0.15   0.01  -0.04     0.19   0.20  -0.28
   6   8     0.23   0.12  -0.17    -0.08  -0.14   0.11     0.00   0.21   0.07
   7   7     0.10   0.16   0.15    -0.13  -0.29  -0.09    -0.04   0.12  -0.00
   8   6    -0.08   0.08  -0.08     0.35   0.20  -0.01     0.19   0.01  -0.10
   9   7    -0.06   0.05  -0.05    -0.17   0.12  -0.15     0.13  -0.16   0.29
  10   6    -0.09   0.04   0.00    -0.09   0.13  -0.03    -0.06  -0.22   0.07
  11   7    -0.15   0.07   0.15    -0.00   0.08  -0.01    -0.32  -0.07   0.08
  12   7    -0.25  -0.05   0.13     0.03   0.08   0.03     0.01  -0.07  -0.12
  13   1    -0.03   0.10  -0.02     0.06   0.09   0.03    -0.07   0.00  -0.01
  14   1    -0.07   0.01   0.02    -0.01   0.00   0.05    -0.04  -0.06   0.05
  15   1    -0.08  -0.06   0.14     0.09   0.03   0.01     0.01  -0.04  -0.05
  16   1     0.18  -0.15   0.11     0.07   0.00  -0.00    -0.06  -0.05  -0.05
  17   1     0.04  -0.03  -0.06    -0.02  -0.09   0.01     0.04  -0.03   0.01
  18   1     0.08   0.07  -0.00     0.01  -0.04   0.01    -0.08   0.02   0.01
  19   1     0.05   0.16   0.07    -0.03  -0.13  -0.04    -0.01   0.05   0.00
  20   1     0.03   0.04   0.03    -0.04  -0.09  -0.02     0.01   0.10   0.02
  21   1    -0.02   0.01   0.01     0.15   0.02  -0.12     0.04   0.05  -0.17
  22   1    -0.05   0.02  -0.04     0.19   0.14   0.06     0.15   0.09   0.03
  23   1     0.04  -0.02   0.19     0.10  -0.18   0.26     0.02  -0.01   0.20
  24   1    -0.18   0.09   0.04    -0.14   0.18  -0.04    -0.29   0.22  -0.04
  25   1    -0.08  -0.06   0.02     0.02   0.03   0.03    -0.02   0.08  -0.07
  26   1    -0.08  -0.13  -0.02    -0.03   0.02  -0.01     0.06   0.14  -0.07
                     16                     17                     18
                        a                      a                      a 
 Frequencies --   490.7705               524.7748               545.1035
 Red. masses --    10.2121                 8.8939                 9.5929
 Frc consts  --     0.0000                 0.0000                 0.0000
 IR Inten    --    13.6060                22.7083                46.6821
 Raman Activ --     0.0000                 0.0000                 0.0000
 Depolar     --     0.0000                 0.0000                 0.0000
 Atom AN      X      Y      Z        X      Y      Z        X      Y      Z
   1   6    -0.00  -0.08   0.05    -0.05  -0.33   0.06    -0.00   0.01  -0.01
   2   6    -0.25   0.26  -0.08    -0.08  -0.18  -0.04    -0.05   0.08   0.03
   3   6    -0.20   0.18  -0.08     0.15   0.03  -0.03     0.02  -0.01   0.31
   4   6     0.07   0.00  -0.19     0.02   0.18   0.05     0.04  -0.26   0.11
   5   8     0.08  -0.11   0.30    -0.13   0.21   0.06     0.17  -0.25  -0.29
   6   8     0.21  -0.15  -0.21    -0.11  -0.24   0.00    -0.14   0.26   0.01
   7   7    -0.02  -0.05  -0.02     0.08   0.18   0.06     0.07   0.03  -0.00
   8   6     0.19  -0.08  -0.10     0.06   0.05   0.16    -0.01  -0.11  -0.09
   9   7     0.12  -0.12   0.07     0.09   0.16  -0.12    -0.02  -0.06  -0.12
  10   6     0.09  -0.00   0.06    -0.08   0.13  -0.30    -0.06   0.20  -0.12
  11   7    -0.03   0.19   0.07     0.02   0.16  -0.00     0.11   0.21  -0.03
  12   7    -0.26  -0.02   0.15     0.00  -0.18   0.02    -0.16  -0.05   0.17
  13   1    -0.03  -0.05  -0.01     0.03  -0.24   0.02    -0.01  -0.01  -0.01
  14   1     0.08  -0.00   0.03     0.01  -0.04  -0.13     0.04   0.01   0.01
  15   1     0.02   0.11  -0.08     0.02  -0.04  -0.04     0.07  -0.05  -0.09
  16   1    -0.14   0.12  -0.07    -0.08  -0.08  -0.05    -0.10   0.13  -0.05
  17   1    -0.10   0.11  -0.05     0.06  -0.01   0.00     0.02   0.03   0.09
  18   1     0.09  -0.05  -0.10     0.10  -0.01  -0.01    -0.21   0.06   0.10
  19   1     0.00  -0.03  -0.01     0.03   0.11   0.03    -0.03  -0.07  -0.04
  20   1    -0.03  -0.10  -0.03     0.04   0.09   0.02     0.05   0.05  -0.01
  21   1     0.06  -0.00  -0.15    -0.01   0.07  -0.03     0.02  -0.05  -0.05
  22   1     0.14   0.04   0.03     0.08  -0.02   0.08     0.02  -0.01  -0.01
  23   1     0.07  -0.01   0.17     0.09  -0.13   0.21     0.08  -0.18   0.18
  24   1    -0.11   0.08   0.03    -0.05  -0.26   0.16     0.03  -0.20   0.11
  25   1    -0.14  -0.05  -0.05     0.01  -0.11   0.03    -0.08  -0.11   0.00
  26   1     0.00  -0.14   0.07    -0.16  -0.02  -0.06     0.22   0.12   0.03
                     19                     20                     21
                        a                      a                      a 
 Frequencies --   572.6926               592.6800               602.0397
 Red. masses --     8.5371                 5.9061                 7.3318
 Frc consts  --     0.0000                 0.0000                 0.0000
 IR Inten    --    39.6808               177.5961                48.9800
 Raman Activ --     0.0000                 0.0000                 0.0000
 Depolar     --     0.0000                 0.0000                 0.0000
 Atom AN      X      Y      Z        X      Y      Z        X      Y      Z
   1   6     0.03   0.07  -0.03    -0.02  -0.20   0.07    -0.01   0.02   0.06
   2   6     0.08  -0.06   0.02    -0.07  -0.03  -0.01    -0.06   0.05   0.04
   3   6    -0.04  -0.10   0.14     0.10   0.06   0.01    -0.02  -0.06   0.28
   4   6     0.06   0.09   0.10    -0.07  -0.07  -0.01     0.21  -0.09   0.01
   5   8    -0.04   0.18  -0.06    -0.11  -0.09  -0.02     0.06  -0.28  -0.02
   6   8    -0.18  -0.09   0.02    -0.03  -0.04   0.03     0.01   0.10  -0.23
   7   7    -0.12  -0.10  -0.06     0.17   0.14   0.07    -0.06  -0.04  -0.04
   8   6     0.02  -0.04  -0.08     0.11   0.00   0.04     0.01   0.29   0.18
   9   7     0.27   0.08  -0.14    -0.19   0.09  -0.30     0.04   0.21   0.01
  10   6     0.34  -0.10  -0.09    -0.01   0.10  -0.00    -0.02  -0.06  -0.03
  11   7     0.10   0.14   0.18     0.03  -0.19   0.18    -0.08  -0.13   0.05
  12   7    -0.31  -0.16   0.00    -0.09   0.09  -0.00     0.08  -0.04  -0.09
  13   1    -0.01   0.12  -0.01     0.01  -0.19   0.01     0.03  -0.15   0.02
  14   1    -0.04  -0.02   0.07     0.05  -0.00  -0.10     0.02   0.06  -0.15
  15   1     0.00  -0.03   0.01     0.06  -0.01  -0.06     0.12  -0.04  -0.12
  16   1     0.04   0.01   0.02    -0.10  -0.01  -0.05    -0.15   0.13  -0.07
  17   1    -0.01  -0.05   0.04     0.06   0.02   0.02    -0.03   0.03   0.06
  18   1    -0.02  -0.00   0.02     0.02   0.01   0.02    -0.13   0.00  -0.01
  19   1    -0.08  -0.06  -0.04     0.06   0.06   0.03    -0.08  -0.07  -0.05
  20   1     0.00   0.03  -0.02     0.04   0.02   0.02     0.03   0.06  -0.02
  21   1    -0.06   0.04   0.14     0.06  -0.00  -0.11    -0.00   0.10   0.01
  22   1    -0.09  -0.12  -0.09     0.14   0.04   0.08     0.04   0.07   0.07
  23   1     0.07   0.38  -0.05    -0.07   0.29  -0.23    -0.03   0.13  -0.08
  24   1    -0.13   0.15   0.03    -0.03   0.35  -0.14    -0.07   0.10  -0.04
  25   1    -0.15  -0.26  -0.06     0.03  -0.12   0.09     0.10  -0.01   0.08
  26   1    -0.05   0.08  -0.05     0.34   0.09   0.23    -0.37  -0.20  -0.26
                     22                     23                     24
                        a                      a                      a 
 Frequencies --   626.1086               677.1083               743.0643
 Red. masses --     8.8321                 9.0997                 9.7600
 Frc consts  --     0.0000                 0.0000                 0.0000
 IR Inten    --    75.7543                99.1904                 2.5350
 Raman Activ --     0.0000                 0.0000                 0.0000
 Depolar     --     0.0000                 0.0000                 0.0000
 Atom AN      X      Y      Z        X      Y      Z        X      Y      Z
   1   6    -0.01   0.10  -0.02     0.04  -0.04  -0.03     0.04  -0.07  -0.03
   2   6    -0.00   0.02   0.00    -0.00   0.03  -0.03     0.10  -0.14   0.09
   3   6    -0.07  -0.04   0.03    -0.02   0.03  -0.05     0.05  -0.09   0.42
   4   6     0.13   0.03  -0.01    -0.01   0.01   0.02     0.09   0.18  -0.09
   5   8    -0.22  -0.10  -0.01     0.13   0.08   0.02    -0.15   0.28   0.09
   6   8     0.05  -0.05  -0.12    -0.01   0.02   0.05     0.11  -0.05  -0.35
   7   7    -0.12  -0.09  -0.05    -0.02  -0.01  -0.01     0.04   0.02   0.02
   8   6    -0.01   0.21   0.08     0.05  -0.23  -0.16     0.02  -0.18  -0.16
   9   7     0.29   0.05   0.33     0.06  -0.17   0.16    -0.11  -0.01  -0.13
  10   6    -0.17   0.17  -0.33    -0.30   0.46  -0.34    -0.11   0.06   0.09
  11   7    -0.03  -0.16   0.08     0.08  -0.19   0.15    -0.08  -0.09   0.03
  12   7     0.13  -0.15  -0.05     0.04  -0.00   0.21     0.04   0.05   0.16
  13   1    -0.00   0.04  -0.00    -0.03   0.11  -0.02    -0.04   0.08  -0.03
  14   1    -0.03   0.02  -0.01     0.02  -0.05   0.13    -0.02  -0.06   0.10
  15   1    -0.00   0.01   0.00    -0.04   0.03   0.03     0.12  -0.14  -0.10
  16   1     0.00   0.03   0.00     0.05  -0.01   0.02    -0.07   0.10  -0.04
  17   1    -0.05  -0.02  -0.01    -0.01   0.01  -0.02     0.00  -0.01   0.11
  18   1     0.04   0.01  -0.01    -0.02  -0.01  -0.01     0.06  -0.02  -0.12
  19   1    -0.06  -0.06  -0.03     0.01   0.01   0.01    -0.11  -0.09  -0.07
  20   1    -0.01  -0.01  -0.03    -0.02  -0.02   0.00     0.11   0.13  -0.03
  21   1    -0.04   0.10   0.07     0.02  -0.08  -0.05     0.01  -0.08   0.02
  22   1    -0.05   0.04  -0.00     0.01  -0.01  -0.04    -0.05  -0.06  -0.07
  23   1     0.01   0.07  -0.01    -0.05   0.11  -0.14    -0.07  -0.10  -0.04
  24   1    -0.09  -0.09   0.06    -0.01   0.17  -0.07     0.05   0.03  -0.03
  25   1    -0.00   0.06  -0.08     0.11  -0.13   0.20    -0.09   0.26  -0.13
  26   1     0.43   0.03   0.33    -0.27  -0.03  -0.20     0.01  -0.03   0.06
                     25                     26                     27
                        a                      a                      a 
 Frequencies --   750.5304               875.1630               896.4745
 Red. masses --     4.2587                 7.7723                 7.7387
 Frc consts  --     0.0000                 0.0000                 0.0000
 IR Inten    --   121.3370                24.6046                76.1846
 Raman Activ --     0.0000                 0.0000                 0.0000
 Depolar     --     0.0000                 0.0000                 0.0000
 Atom AN      X      Y      Z        X      Y      Z        X      Y      Z
   1   6    -0.02   0.01   0.02     0.12  -0.21  -0.03     0.03  -0.34  -0.09
   2   6    -0.03   0.03  -0.02    -0.18  -0.04   0.03     0.21  -0.17  -0.05
   3   6    -0.00   0.02  -0.12    -0.05   0.08  -0.15    -0.24   0.22   0.11
   4   6    -0.05  -0.07   0.02     0.18   0.01   0.08    -0.22  -0.08  -0.09
   5   8     0.09  -0.07  -0.04    -0.00  -0.18  -0.05     0.07  -0.09   0.03
   6   8    -0.06   0.02   0.15    -0.10  -0.03   0.13     0.03   0.04  -0.01
   7   7     0.02   0.02   0.00    -0.02   0.00  -0.03     0.13   0.32   0.08
   8   6     0.00   0.04   0.05     0.33   0.07  -0.13    -0.06   0.16   0.05
   9   7    -0.07   0.04  -0.10     0.14   0.27  -0.16    -0.02   0.04   0.07
  10   6     0.01   0.09  -0.11    -0.06   0.02   0.11     0.02  -0.03  -0.02
  11   7     0.13  -0.06   0.10    -0.18  -0.10   0.01     0.07   0.03  -0.02
  12   7     0.08  -0.24   0.22    -0.00   0.11   0.09     0.01  -0.05  -0.05
  13   1     0.01  -0.05   0.01    -0.14   0.12  -0.09     0.03   0.20   0.02
  14   1     0.01   0.03  -0.06    -0.01  -0.12   0.17    -0.26  -0.22   0.14
  15   1    -0.03   0.03   0.02     0.04   0.08  -0.02     0.06  -0.03  -0.01
  16   1     0.01  -0.03   0.00    -0.12  -0.01  -0.04     0.10   0.06   0.01
  17   1     0.01   0.01  -0.03    -0.03   0.08  -0.05    -0.09   0.11   0.01
  18   1    -0.03   0.00   0.04    -0.04   0.03   0.09     0.00  -0.02  -0.04
  19   1     0.04   0.04   0.03     0.05   0.09   0.03     0.04  -0.27  -0.06
  20   1    -0.03  -0.04   0.01    -0.05  -0.03   0.02    -0.01  -0.26  -0.13
  21   1     0.00   0.01  -0.01    -0.01   0.06   0.36    -0.06   0.10  -0.00
  22   1     0.03   0.01   0.03    -0.20  -0.18  -0.21    -0.05   0.08  -0.00
  23   1     0.02   0.14  -0.07    -0.08  -0.12  -0.01     0.04   0.07   0.00
  24   1    -0.02   0.06  -0.01     0.02  -0.04  -0.01    -0.03  -0.01   0.02
  25   1    -0.36   0.50  -0.54     0.03   0.11   0.06     0.01  -0.01  -0.01
  26   1    -0.11  -0.03  -0.10     0.02  -0.04   0.00    -0.02  -0.00  -0.02
                     28                     29                     30
                        a                      a                      a 
 Frequencies --   898.4396               935.6302               955.7978
 Red. masses --     6.5131                 8.9131                 4.8273
 Frc consts  --     0.0000                 0.0000                 0.0000
 IR Inten    --    61.9320                22.8929               127.2986
 Raman Activ --     0.0000                 0.0000                 0.0000
 Depolar     --     0.0000                 0.0000                 0.0000
 Atom AN      X      Y      Z        X      Y      Z        X      Y      Z
   1   6     0.01  -0.14  -0.06    -0.01   0.20  -0.23     0.12  -0.25  -0.07
   2   6    -0.07   0.16  -0.32    -0.34  -0.10  -0.22    -0.02   0.08   0.03
   3   6    -0.04   0.05   0.10     0.01  -0.02   0.15     0.01   0.06   0.08
   4   6     0.38   0.12   0.16    -0.28  -0.09  -0.03    -0.15  -0.06  -0.05
   5   8    -0.04  -0.08  -0.04     0.03   0.00   0.03     0.02  -0.02   0.01
   6   8    -0.06  -0.04  -0.03     0.09   0.03  -0.13     0.04   0.02  -0.03
   7   7    -0.03  -0.00   0.00     0.09   0.05   0.04     0.05  -0.35  -0.11
   8   6    -0.09  -0.15   0.11     0.40   0.03   0.33    -0.11   0.09   0.04
   9   7     0.02   0.15  -0.16    -0.03  -0.10  -0.00    -0.09   0.05   0.04
  10   6    -0.01  -0.02   0.06    -0.02   0.01  -0.02     0.01  -0.03  -0.02
  11   7    -0.10  -0.05   0.01     0.04   0.04   0.02     0.08   0.03  -0.02
  12   7    -0.01   0.05   0.04     0.00  -0.02  -0.02     0.01  -0.05  -0.05
  13   1     0.19   0.12   0.11     0.02   0.12  -0.04     0.06   0.20   0.03
  14   1    -0.03  -0.09   0.10    -0.10   0.02  -0.06    -0.11  -0.17   0.18
  15   1    -0.33   0.09   0.19    -0.30  -0.17   0.04     0.01   0.06   0.02
  16   1     0.33  -0.03   0.14     0.08  -0.05   0.05     0.06   0.20   0.05
  17   1    -0.01  -0.10   0.02     0.07  -0.04   0.08     0.05   0.14   0.05
  18   1    -0.05   0.04   0.08     0.02  -0.02  -0.07     0.02  -0.01  -0.03
  19   1    -0.07  -0.12  -0.05    -0.02  -0.00  -0.01     0.01   0.49   0.10
  20   1     0.04   0.03  -0.03     0.06   0.10   0.02     0.02   0.39   0.23
  21   1    -0.02   0.02  -0.21     0.13  -0.07   0.27    -0.04   0.07  -0.07
  22   1     0.17  -0.01   0.14    -0.00  -0.05   0.02    -0.02   0.11   0.02
  23   1    -0.04  -0.06  -0.00     0.00  -0.00   0.00     0.05   0.08   0.00
  24   1     0.01   0.00  -0.01     0.03   0.03  -0.01    -0.03  -0.01   0.01
  25   1     0.00   0.06   0.01    -0.00  -0.03  -0.00     0.00  -0.00  -0.02
  26   1     0.03  -0.06   0.03    -0.02   0.05  -0.02     0.01   0.00   0.01
                     31                     32                     33
                        a                      a                      a 
 Frequencies --   999.9885              1028.5822              1033.8730
 Red. masses --     8.2927                 6.9755                 5.9919
 Frc consts  --     0.0000                 0.0000                 0.0000
 IR Inten    --   111.0135                 6.6495                26.6067
 Raman Activ --     0.0000                 0.0000                 0.0000
 Depolar     --     0.0000                 0.0000                 0.0000
 Atom AN      X      Y      Z        X      Y      Z        X      Y      Z
   1   6    -0.01   0.12  -0.17     0.15  -0.15   0.09     0.15   0.00   0.01
   2   6     0.03  -0.22   0.07    -0.16   0.12  -0.02    -0.18  -0.00   0.00
   3   6    -0.11   0.13  -0.02     0.06  -0.16  -0.02     0.02  -0.17   0.01
   4   6     0.41   0.25  -0.15     0.07   0.11   0.09     0.06   0.21  -0.20
   5   8     0.02  -0.04  -0.06     0.01  -0.03  -0.03     0.05  -0.09  -0.06
   6   8    -0.17  -0.01   0.26     0.03   0.01  -0.07    -0.12   0.04   0.19
   7   7    -0.00  -0.03  -0.05     0.03   0.07   0.06     0.09   0.08   0.08
   8   6     0.02  -0.01   0.18    -0.06   0.20  -0.06    -0.01  -0.02  -0.01
   9   7    -0.16  -0.19  -0.00    -0.23  -0.06   0.10    -0.21   0.02   0.07
  10   6    -0.01  -0.02  -0.06    -0.09  -0.07  -0.07     0.01  -0.02   0.03
  11   7     0.03   0.10   0.09     0.14   0.24   0.18     0.14  -0.09  -0.22
  12   7    -0.01  -0.06  -0.05     0.02  -0.21  -0.20    -0.04   0.05   0.05
  13   1     0.03   0.09  -0.02    -0.10   0.03  -0.05    -0.04   0.04  -0.04
  14   1    -0.19  -0.01  -0.10     0.15  -0.05   0.17     0.16  -0.00   0.13
  15   1     0.07  -0.18  -0.09    -0.02   0.21   0.07    -0.05  -0.00   0.00
  16   1    -0.06   0.11  -0.02    -0.05  -0.13  -0.01    -0.06  -0.07  -0.01
  17   1    -0.18   0.24  -0.10     0.05  -0.19   0.01    -0.08  -0.10  -0.05
  18   1     0.03   0.01   0.03     0.01  -0.01  -0.03     0.09  -0.03  -0.10
  19   1     0.01   0.10   0.02    -0.05  -0.13  -0.04    -0.09  -0.13  -0.06
  20   1    -0.02   0.02   0.01     0.08   0.05  -0.04     0.14   0.13  -0.04
  21   1     0.13  -0.17   0.01     0.04  -0.05   0.07     0.06  -0.10   0.01
  22   1     0.02   0.08   0.06    -0.18   0.18  -0.09    -0.07   0.13  -0.02
  23   1    -0.05  -0.10  -0.01    -0.07  -0.16  -0.03     0.22   0.35   0.06
  24   1     0.15   0.12  -0.05     0.30   0.22  -0.09    -0.30  -0.20   0.10
  25   1    -0.04  -0.11  -0.05    -0.06  -0.15  -0.12     0.09   0.14   0.13
  26   1     0.05  -0.18   0.04     0.01  -0.03   0.00     0.05  -0.18   0.03
                     34                     35                     36
                        a                      a                      a 
 Frequencies --  1052.0126              1085.6518              1101.1843
 Red. masses --     7.4332                 5.4923                 7.4998
 Frc consts  --     0.0000                 0.0000                 0.0000
 IR Inten    --    73.9969                27.7245                38.4865
 Raman Activ --     0.0000                 0.0000                 0.0000
 Depolar     --     0.0000                 0.0000                 0.0000
 Atom AN      X      Y      Z        X      Y      Z        X      Y      Z
   1   6     0.15   0.03  -0.09     0.27   0.08  -0.01    -0.04  -0.01   0.03
   2   6    -0.14  -0.10   0.07    -0.24  -0.11   0.09     0.09  -0.04  -0.04
   3   6     0.04   0.03  -0.09     0.10  -0.17  -0.04     0.11   0.24   0.15
   4   6     0.24  -0.15   0.32    -0.14  -0.00  -0.14    -0.12   0.40   0.15
   5   8    -0.11   0.18   0.04     0.01  -0.04  -0.01     0.13  -0.31  -0.10
   6   8     0.16  -0.07  -0.24    -0.06   0.03   0.10    -0.05   0.08  -0.06
   7   7    -0.14   0.05  -0.08    -0.04   0.09  -0.01    -0.23  -0.11  -0.08
   8   6    -0.03  -0.05   0.08    -0.15  -0.05  -0.02     0.03  -0.08  -0.04
   9   7    -0.22   0.02   0.02     0.18   0.21   0.01    -0.06   0.05   0.04
  10   6    -0.05  -0.04   0.02     0.03  -0.00  -0.01    -0.02  -0.02  -0.01
  11   7     0.14   0.02  -0.09    -0.09   0.01   0.08     0.04   0.02  -0.01
  12   7    -0.01  -0.04  -0.05     0.02  -0.03  -0.04    -0.01  -0.02   0.00
  13   1    -0.01   0.10  -0.04     0.21   0.11   0.09    -0.04  -0.05  -0.02
  14   1     0.06  -0.03   0.11     0.33   0.03   0.23     0.01   0.01  -0.02
  15   1    -0.00  -0.09  -0.04    -0.12  -0.40  -0.11    -0.01  -0.04   0.01
  16   1    -0.09   0.03  -0.02    -0.06   0.14   0.02     0.03  -0.10  -0.01
  17   1     0.13   0.11   0.05     0.02   0.12  -0.02     0.36  -0.02   0.24
  18   1    -0.17   0.07   0.20     0.08  -0.04  -0.10     0.21  -0.07  -0.28
  19   1     0.16   0.07   0.08     0.08  -0.00   0.03     0.08   0.09   0.07
  20   1    -0.20  -0.30  -0.02    -0.06  -0.14  -0.04    -0.20  -0.23   0.01
  21   1     0.10  -0.16  -0.02    -0.10   0.12  -0.17     0.02  -0.04   0.02
  22   1    -0.04   0.18   0.03     0.08   0.00   0.06    -0.01  -0.02  -0.02
  23   1     0.13   0.19   0.04    -0.09  -0.13  -0.03     0.02   0.03   0.01
  24   1    -0.11  -0.06   0.04     0.10   0.06  -0.03     0.00   0.00   0.00
  25   1     0.04   0.07   0.04    -0.03  -0.04  -0.05     0.00   0.01   0.01
  26   1    -0.02   0.13   0.01    -0.00  -0.00  -0.01     0.05  -0.14   0.02
                     37                     38                     39
                        a                      a                      a 
 Frequencies --  1113.1718              1115.7516              1146.8036
 Red. masses --     8.0208                 8.5309                 9.2116
 Frc consts  --     0.0000                 0.0000                 0.0000
 IR Inten    --    51.5100                42.2184                33.9126
 Raman Activ --     0.0000                 0.0000                 0.0000
 Depolar     --     0.0000                 0.0000                 0.0000
 Atom AN      X      Y      Z        X      Y      Z        X      Y      Z
   1   6    -0.09  -0.10  -0.22    -0.23  -0.07  -0.22     0.01   0.12  -0.05
   2   6    -0.03   0.26   0.19     0.10   0.27   0.15     0.01  -0.12   0.07
   3   6     0.13  -0.32  -0.11     0.17  -0.20  -0.09    -0.30  -0.15  -0.16
   4   6     0.02   0.11   0.04    -0.05  -0.03  -0.09    -0.08   0.21   0.45
   5   8    -0.01  -0.05   0.01    -0.01   0.05  -0.04     0.02  -0.26  -0.00
   6   8    -0.03   0.02  -0.00    -0.03   0.01   0.07     0.05   0.03  -0.17
   7   7    -0.03   0.10   0.00    -0.06   0.02   0.01     0.22   0.10   0.01
   8   6    -0.00   0.03   0.24     0.11  -0.20   0.15    -0.02  -0.21  -0.04
   9   7    -0.03  -0.13  -0.08     0.07   0.19   0.03     0.02   0.21   0.07
  10   6     0.22   0.11  -0.04    -0.22  -0.12   0.05    -0.04  -0.04   0.01
  11   7    -0.19  -0.17  -0.05     0.17   0.18   0.07     0.03   0.03   0.01
  12   7     0.13   0.19   0.11    -0.15  -0.21  -0.12     0.01  -0.04  -0.04
  13   1    -0.13   0.12  -0.10    -0.14   0.04  -0.09     0.05   0.01   0.01
  14   1    -0.13  -0.08   0.04    -0.08  -0.04   0.01    -0.06   0.02  -0.06
  15   1     0.08   0.10  -0.01     0.06  -0.01  -0.03     0.08   0.05  -0.01
  16   1    -0.04   0.24   0.03     0.02   0.24   0.03    -0.06   0.06  -0.02
  17   1     0.13  -0.09   0.03     0.04  -0.06  -0.02    -0.25   0.02  -0.14
  18   1     0.09  -0.04  -0.12     0.01  -0.00  -0.00     0.14  -0.05  -0.19
  19   1     0.08  -0.03   0.02     0.02  -0.06  -0.00     0.01   0.06  -0.01
  20   1    -0.03  -0.11  -0.05    -0.01  -0.06  -0.04     0.09   0.15   0.03
  21   1     0.02   0.00  -0.02    -0.01   0.02  -0.03     0.04  -0.11  -0.05
  22   1     0.01   0.11   0.07     0.09  -0.13   0.07     0.07  -0.05   0.04
  23   1    -0.06  -0.06  -0.02     0.05   0.04   0.02     0.02   0.02   0.01
  24   1    -0.12  -0.09   0.02     0.14   0.10  -0.03     0.02   0.01  -0.00
  25   1    -0.15  -0.26  -0.17     0.17   0.30   0.20     0.01   0.03  -0.00
  26   1    -0.04   0.10  -0.03     0.04  -0.11   0.03    -0.03   0.28  -0.04
                     40                     41                     42
                        a                      a                      a 
 Frequencies --  1157.2991              1183.1862              1202.2790
 Red. masses --     7.0337                 6.8217                 5.7944
 Frc consts  --     0.0000                 0.0000                 0.0000
 IR Inten    --    10.5115                38.9732                12.4866
 Raman Activ --     0.0000                 0.0000                 0.0000
 Depolar     --     0.0000                 0.0000                 0.0000
 Atom AN      X      Y      Z        X      Y      Z        X      Y      Z
   1   6     0.01   0.01   0.18     0.04  -0.08   0.10     0.28   0.13  -0.15
   2   6    -0.09   0.01  -0.02    -0.13   0.06   0.04    -0.22  -0.13   0.16
   3   6    -0.29  -0.40   0.05     0.41   0.07  -0.13     0.02   0.07  -0.03
   4   6     0.08   0.10  -0.02     0.05   0.03   0.16    -0.08  -0.02  -0.01
   5   8     0.01   0.06  -0.05    -0.02  -0.05   0.03     0.03   0.02  -0.02
   6   8    -0.01  -0.00  -0.01    -0.02   0.03  -0.02    -0.02   0.00   0.01
   7   7     0.17   0.21  -0.10    -0.20  -0.09   0.10    -0.02  -0.00   0.05
   8   6     0.02   0.17  -0.20     0.03   0.21  -0.14    -0.20   0.01   0.07
   9   7    -0.02  -0.22   0.00    -0.09  -0.28  -0.08     0.27  -0.09  -0.16
  10   6    -0.05  -0.01  -0.00    -0.09  -0.02   0.02     0.06   0.01  -0.02
  11   7     0.06   0.03  -0.01     0.09   0.03  -0.02    -0.07  -0.01   0.04
  12   7    -0.06  -0.00   0.03    -0.03   0.00   0.03    -0.12  -0.04   0.04
  13   1     0.24  -0.04   0.18     0.27   0.03   0.18     0.16   0.17   0.02
  14   1    -0.14   0.02  -0.14    -0.19  -0.04  -0.10    -0.27  -0.05  -0.10
  15   1    -0.05   0.05   0.05    -0.04  -0.07  -0.02     0.17   0.34   0.04
  16   1     0.07   0.22   0.06     0.02   0.17   0.04    -0.23  -0.23  -0.07
  17   1     0.16  -0.07   0.15    -0.10   0.21  -0.15     0.17  -0.12   0.10
  18   1    -0.03   0.01   0.02     0.13  -0.04  -0.16    -0.00  -0.01  -0.01
  19   1     0.25   0.20   0.09    -0.14  -0.20  -0.06    -0.04  -0.07  -0.02
  20   1    -0.09  -0.13   0.02     0.05   0.02  -0.07     0.04   0.03  -0.01
  21   1    -0.04   0.08   0.08    -0.05   0.10   0.07     0.03  -0.07  -0.13
  22   1     0.00  -0.17  -0.08    -0.01  -0.13  -0.07     0.07   0.07   0.08
  23   1     0.02   0.02  -0.00     0.04   0.06   0.00    -0.04  -0.06  -0.01
  24   1     0.01   0.01   0.00    -0.01  -0.00   0.01     0.04   0.03  -0.02
  25   1     0.05   0.08   0.08     0.04   0.08   0.06     0.10   0.22   0.15
  26   1     0.03  -0.16   0.03    -0.03   0.23  -0.03     0.02  -0.07   0.01
                     43                     44                     45
                        a                      a                      a 
 Frequencies --  1208.0750              1244.8411              1273.5441
 Red. masses --     7.0062                 4.5984                 5.2021
 Frc consts  --     0.0000                 0.0000                 0.0000
 IR Inten    --   108.9801                47.9911                67.3533
 Raman Activ --     0.0000                 0.0000                 0.0000
 Depolar     --     0.0000                 0.0000                 0.0000
 Atom AN      X      Y      Z        X      Y      Z        X      Y      Z
   1   6    -0.04   0.02  -0.08     0.04   0.06  -0.17     0.04   0.07  -0.13
   2   6     0.12  -0.02  -0.02    -0.03  -0.06   0.16    -0.03  -0.05  -0.08
   3   6    -0.15   0.03   0.01    -0.02   0.11  -0.15     0.01  -0.12   0.22
   4   6     0.07   0.09   0.15    -0.08   0.19   0.10     0.23  -0.22  -0.18
   5   8     0.01  -0.04   0.01     0.05  -0.03  -0.06    -0.07   0.04   0.07
   6   8    -0.02   0.00  -0.04     0.12  -0.07  -0.08    -0.11   0.08   0.08
   7   7     0.07   0.00  -0.05     0.01  -0.03   0.06    -0.02   0.04  -0.05
   8   6    -0.04   0.22   0.23     0.09  -0.05   0.02     0.04  -0.03   0.02
   9   7     0.08  -0.44  -0.27    -0.22  -0.05   0.10    -0.13   0.06   0.10
  10   6    -0.01   0.00  -0.01    -0.11  -0.03   0.04    -0.16  -0.03   0.07
  11   7     0.03   0.02   0.01     0.09   0.01  -0.04     0.09   0.04  -0.03
  12   7    -0.12  -0.02   0.07     0.09   0.07   0.01     0.07   0.00  -0.05
  13   1    -0.21   0.01  -0.14     0.10   0.09   0.02    -0.03   0.06  -0.05
  14   1     0.31   0.04   0.19     0.03  -0.00   0.04     0.05   0.01   0.02
  15   1    -0.01  -0.12  -0.03     0.09  -0.02  -0.04     0.08   0.33   0.08
  16   1    -0.00  -0.10  -0.03    -0.12  -0.04  -0.03    -0.05  -0.27  -0.05
  17   1    -0.10  -0.04  -0.03     0.07  -0.15   0.01    -0.02   0.23   0.04
  18   1     0.06  -0.02  -0.08    -0.19   0.08   0.26     0.19  -0.07  -0.24
  19   1     0.03   0.08   0.01    -0.08  -0.07  -0.04     0.09   0.07   0.04
  20   1    -0.02   0.01   0.04     0.07   0.09  -0.00    -0.06  -0.09  -0.00
  21   1    -0.18   0.32  -0.07    -0.24   0.37  -0.06    -0.11   0.17  -0.05
  22   1    -0.02   0.04   0.04     0.17  -0.35   0.05     0.16  -0.30   0.06
  23   1    -0.01  -0.02  -0.02     0.03   0.05  -0.02     0.04   0.06   0.00
  24   1     0.02   0.01  -0.01    -0.04  -0.02   0.01    -0.01  -0.01   0.01
  25   1     0.11   0.23   0.17    -0.10  -0.20  -0.13    -0.05  -0.11  -0.08
  26   1    -0.01   0.11  -0.01     0.04  -0.25   0.03    -0.04   0.24  -0.04
                     46                     47                     48
                        a                      a                      a 
 Frequencies --  1294.4003              1317.3667              1329.4067
 Red. masses --     3.5498                 3.9425                 5.6174
 Frc consts  --     0.0000                 0.0000                 0.0000
 IR Inten    --    21.5558                53.5787               246.6596
 Raman Activ --     0.0000                 0.0000                 0.0000
 Depolar     --     0.0000                 0.0000                 0.0000
 Atom AN      X      Y      Z        X      Y      Z        X      Y      Z
   1   6    -0.07   0.07   0.02    -0.13  -0.06  -0.11    -0.11  -0.01  -0.09
   2   6     0.03  -0.18  -0.16     0.02  -0.14   0.01    -0.02  -0.12  -0.01
   3   6     0.03  -0.23  -0.05    -0.07   0.09  -0.10     0.08   0.08   0.01
   4   6    -0.15   0.13   0.09     0.01   0.06  -0.11    -0.04  -0.31   0.35
   5   8     0.04   0.00  -0.05    -0.00  -0.07   0.05     0.02   0.25  -0.13
   6   8     0.06  -0.04  -0.04     0.01  -0.03   0.01    -0.05   0.11  -0.04
   7   7    -0.07   0.01   0.13    -0.01  -0.02   0.06     0.02   0.01  -0.04
   8   6     0.02  -0.05   0.05    -0.19   0.33  -0.05    -0.03   0.09  -0.01
   9   7     0.02  -0.02  -0.03     0.07  -0.04   0.01    -0.01  -0.01  -0.02
  10   6     0.07   0.01  -0.04    -0.03  -0.00   0.01     0.05   0.01  -0.02
  11   7    -0.03  -0.01   0.01    -0.01  -0.01  -0.00    -0.02  -0.02  -0.00
  12   7    -0.03   0.00   0.02     0.00   0.00   0.02     0.00   0.05   0.03
  13   1    -0.08  -0.03  -0.04    -0.01   0.01  -0.01     0.08   0.00   0.04
  14   1     0.15   0.07   0.01     0.28   0.01   0.19     0.16   0.01   0.11
  15   1     0.05   0.30   0.09     0.07   0.06  -0.01     0.06   0.15   0.03
  16   1     0.10   0.10   0.02     0.07   0.18   0.04     0.02   0.11   0.02
  17   1     0.15   0.69   0.06     0.20  -0.05   0.10    -0.23  -0.09  -0.13
  18   1    -0.10   0.03   0.12    -0.05   0.02   0.07     0.19  -0.06  -0.26
  19   1    -0.03  -0.12  -0.01    -0.06  -0.06  -0.02     0.00   0.02  -0.01
  20   1     0.12   0.07  -0.07     0.06   0.07  -0.01    -0.06  -0.05   0.03
  21   1    -0.04   0.06  -0.01     0.25  -0.38   0.14     0.06  -0.09   0.09
  22   1    -0.05   0.10  -0.01     0.29  -0.36   0.13     0.09  -0.06   0.05
  23   1    -0.03  -0.03  -0.01     0.03   0.04   0.03    -0.01  -0.01  -0.01
  24   1    -0.00   0.00  -0.00     0.02   0.01  -0.01    -0.02  -0.01   0.00
  25   1     0.01   0.03   0.03     0.00   0.02   0.00    -0.02  -0.06  -0.02
  26   1     0.04  -0.18   0.03    -0.04   0.19  -0.03     0.09  -0.54   0.07
                     49                     50                     51
                        a                      a                      a 
 Frequencies --  1336.2551              1338.1864              1354.7800
 Red. masses --     4.9068                 5.0189                 5.6367
 Frc consts  --     0.0000                 0.0000                 0.0000
 IR Inten    --    17.3268                19.3883                61.3449
 Raman Activ --     0.0000                 0.0000                 0.0000
 Depolar     --     0.0000                 0.0000                 0.0000
 Atom AN      X      Y      Z        X      Y      Z        X      Y      Z
   1   6    -0.34   0.05  -0.13    -0.28  -0.11  -0.22    -0.01   0.08   0.01
   2   6     0.02  -0.19   0.08     0.11   0.26   0.09    -0.14  -0.27  -0.08
   3   6    -0.12   0.15  -0.10     0.08  -0.16   0.16     0.32   0.05   0.26
   4   6     0.15  -0.10  -0.10    -0.14   0.16  -0.01    -0.14   0.22  -0.14
   5   8    -0.03  -0.01   0.05     0.02  -0.05  -0.01     0.02  -0.12   0.03
   6   8    -0.05   0.02   0.05     0.06  -0.05  -0.03     0.06  -0.07  -0.01
   7   7     0.01  -0.02   0.05    -0.00   0.01  -0.07    -0.03   0.03  -0.14
   8   6     0.21  -0.15   0.04     0.04   0.07  -0.01     0.01  -0.04   0.01
   9   7    -0.03   0.02  -0.01     0.03  -0.02  -0.01    -0.01  -0.01   0.00
  10   6    -0.02   0.02   0.02     0.05   0.00  -0.03     0.02  -0.00  -0.01
  11   7     0.01   0.01   0.00    -0.03  -0.01   0.01    -0.00   0.00   0.00
  12   7     0.01  -0.03  -0.03    -0.02   0.01   0.02    -0.01  -0.01   0.00
  13   1     0.38   0.01   0.23     0.39   0.07   0.22    -0.04  -0.01  -0.02
  14   1     0.23   0.07   0.09     0.13  -0.02   0.12     0.07   0.04   0.01
  15   1     0.12   0.16   0.03     0.04  -0.02  -0.03     0.10   0.33   0.08
  16   1    -0.01   0.17   0.02    -0.13  -0.45  -0.09     0.10   0.27   0.07
  17   1     0.22  -0.17   0.12    -0.21   0.16  -0.09    -0.35  -0.23  -0.18
  18   1     0.06  -0.03  -0.08    -0.11   0.03   0.13    -0.14   0.05   0.18
  19   1    -0.06  -0.05  -0.03     0.08   0.09   0.04     0.11   0.10   0.04
  20   1     0.05   0.06   0.00    -0.06  -0.06   0.01    -0.14  -0.18   0.01
  21   1    -0.07   0.13   0.01     0.11  -0.14   0.10    -0.04   0.05  -0.00
  22   1    -0.23   0.29  -0.12    -0.01   0.03  -0.02    -0.01   0.03   0.01
  23   1    -0.01  -0.01  -0.01    -0.00  -0.00   0.01    -0.01  -0.01  -0.01
  24   1    -0.01  -0.00   0.00     0.01   0.01  -0.01     0.00   0.00  -0.00
  25   1     0.01   0.01  -0.00     0.01   0.03   0.02     0.01   0.03   0.02
  26   1    -0.03   0.15  -0.02     0.01  -0.01   0.01    -0.02   0.13  -0.02
                     52                     53                     54
                        a                      a                      a 
 Frequencies --  1400.8782              1458.2139              1473.4960
 Red. masses --     9.3125                 2.4651                 1.9278
 Frc consts  --     0.0000                 0.0000                 0.0000
 IR Inten    --   301.9565                18.1005                 1.3318
 Raman Activ --     0.0000                 0.0000                 0.0000
 Depolar     --     0.0000                 0.0000                 0.0000
 Atom AN      X      Y      Z        X      Y      Z        X      Y      Z
   1   6     0.02  -0.01  -0.02     0.01   0.02  -0.01    -0.05  -0.19   0.11
   2   6    -0.01   0.01   0.01    -0.07   0.03   0.01    -0.16   0.03   0.02
   3   6    -0.00   0.02  -0.01    -0.02  -0.01  -0.01    -0.02   0.01  -0.01
   4   6     0.07  -0.04  -0.00     0.02   0.02  -0.02     0.00  -0.01   0.02
   5   8    -0.02  -0.00   0.01    -0.00  -0.00   0.00    -0.00   0.01  -0.00
   6   8     0.01   0.01  -0.01    -0.01  -0.01   0.01     0.00   0.00  -0.01
   7   7    -0.00  -0.01   0.01    -0.00   0.00   0.00     0.02   0.01   0.00
   8   6     0.04  -0.04  -0.09    -0.09  -0.12  -0.20     0.01  -0.01   0.03
   9   7    -0.38   0.06   0.24     0.09  -0.03  -0.08    -0.01   0.02   0.01
  10   6     0.56   0.22  -0.17    -0.16  -0.06   0.06     0.02   0.00  -0.01
  11   7    -0.08  -0.01   0.05     0.08   0.04  -0.00    -0.02  -0.01  -0.00
  12   7    -0.15  -0.20  -0.10     0.03   0.03   0.01    -0.00  -0.00  -0.00
  13   1     0.00  -0.00  -0.01    -0.01  -0.05  -0.01    -0.08   0.53   0.01
  14   1    -0.01  -0.01   0.02    -0.04  -0.02   0.03     0.23   0.20  -0.43
  15   1     0.01  -0.02  -0.02     0.13  -0.03  -0.12     0.30  -0.04  -0.27
  16   1     0.00  -0.02   0.00     0.14  -0.07   0.08     0.33  -0.14   0.21
  17   1     0.02  -0.01   0.01     0.02   0.01   0.01    -0.00  -0.01   0.00
  18   1     0.01   0.00  -0.01    -0.00  -0.00   0.00     0.01  -0.00  -0.01
  19   1    -0.01  -0.01  -0.01     0.00  -0.00   0.00    -0.03   0.00  -0.01
  20   1     0.00   0.01  -0.00     0.01   0.00  -0.00    -0.02  -0.00   0.02
  21   1    -0.07   0.08   0.14    -0.18   0.10   0.57     0.02  -0.01  -0.06
  22   1     0.17  -0.09   0.07     0.42   0.42   0.28    -0.05  -0.04  -0.03
  23   1    -0.19  -0.23  -0.14    -0.02  -0.01  -0.04     0.01   0.01   0.02
  24   1    -0.13  -0.02   0.04    -0.04  -0.01   0.02     0.02   0.00  -0.01
  25   1     0.14   0.22   0.15    -0.03  -0.04  -0.03     0.00   0.00   0.00
  26   1    -0.01   0.06   0.00    -0.00   0.01  -0.00     0.00  -0.01   0.00
                     55                     56                     57
                        a                      a                      a 
 Frequencies --  1484.0575              1499.7418              1551.9925
 Red. masses --     2.0407                 3.6072                 2.1056
 Frc consts  --     0.0000                 0.0000                 0.0000
 IR Inten    --     1.5137               171.4448                33.8044
 Raman Activ --     0.0000                 0.0000                 0.0000
 Depolar     --     0.0000                 0.0000                 0.0000
 Atom AN      X      Y      Z        X      Y      Z        X      Y      Z
   1   6    -0.03  -0.17   0.07     0.01   0.01  -0.01     0.00   0.00  -0.00
   2   6     0.22  -0.05  -0.01     0.01  -0.00   0.00    -0.00   0.00  -0.00
   3   6     0.02   0.02   0.01     0.00   0.01  -0.00     0.03  -0.10  -0.04
   4   6    -0.00   0.00  -0.02     0.02  -0.03   0.00     0.00   0.03  -0.02
   5   8    -0.00  -0.00   0.00    -0.00   0.01  -0.00    -0.00  -0.01  -0.00
   6   8    -0.00  -0.00   0.01     0.00   0.00  -0.00    -0.00  -0.01   0.00
   7   7    -0.01  -0.01  -0.01     0.00  -0.00   0.00     0.26   0.08  -0.00
   8   6    -0.04  -0.02  -0.06     0.01  -0.04  -0.04    -0.00  -0.00  -0.00
   9   7     0.01   0.00  -0.01    -0.11   0.01   0.06     0.00  -0.00   0.00
  10   6    -0.02  -0.01   0.02     0.17   0.02  -0.17    -0.00  -0.00  -0.00
  11   7     0.02   0.01   0.00    -0.31  -0.16  -0.05     0.00   0.00   0.00
  12   7     0.00   0.00  -0.00    -0.02   0.04   0.07    -0.00   0.00   0.00
  13   1    -0.05   0.41   0.01     0.00  -0.01  -0.00     0.00  -0.01  -0.00
  14   1     0.18   0.14  -0.33    -0.01  -0.00   0.01    -0.01  -0.00   0.01
  15   1    -0.37   0.03   0.33    -0.01   0.00   0.01    -0.02   0.02   0.02
  16   1    -0.41   0.16  -0.26    -0.02   0.01  -0.01    -0.02   0.02  -0.01
  17   1    -0.01  -0.03  -0.01     0.01  -0.00   0.00     0.05   0.09   0.02
  18   1    -0.00  -0.00   0.00     0.00  -0.00  -0.01    -0.00   0.01   0.01
  19   1     0.01   0.00   0.01    -0.00  -0.00  -0.00    -0.63   0.05  -0.27
  20   1     0.01   0.00  -0.01     0.00   0.00  -0.00    -0.46  -0.19   0.42
  21   1    -0.04   0.00   0.15    -0.08   0.09   0.09    -0.00   0.00   0.01
  22   1     0.13   0.09   0.08     0.07   0.04   0.04     0.01   0.01   0.00
  23   1    -0.01  -0.01  -0.02     0.32   0.29   0.41    -0.00  -0.00  -0.00
  24   1    -0.02  -0.00   0.01     0.61   0.01  -0.17    -0.00   0.00   0.00
  25   1    -0.00  -0.01  -0.00     0.01   0.05   0.04    -0.00   0.00   0.00
  26   1    -0.00   0.01  -0.00    -0.00   0.01   0.01     0.00   0.01   0.00
                     58                     59                     60
                        a                      a                      a 
 Frequencies --  1674.3318              2925.2926              2956.2031
 Red. masses --    12.1033                 1.7329                 1.8537
 Frc consts  --     0.0000                 0.0000                 0.0000
 IR Inten    --   402.9725                26.2816                50.3687
 Raman Activ --     0.0000                 0.0000                 0.0000
 Depolar     --     0.0000                 0.0000                 0.0000
 Atom AN      X      Y      Z        X      Y      Z        X      Y      Z
   1   6    -0.00  -0.00  -0.00     0.00  -0.00  -0.01    -0.03  -0.01   0.04
   2   6    -0.00  -0.00   0.00    -0.00   0.01  -0.03    -0.10   0.09  -0.24
   3   6    -0.00   0.01  -0.00    -0.12   0.01   0.22     0.01   0.00  -0.03
   4   6     0.02  -0.05  -0.03    -0.00   0.00   0.01     0.00  -0.00   0.00
   5   8    -0.00   0.01   0.00     0.00  -0.00  -0.00     0.00   0.00  -0.00
   6   8     0.00   0.01   0.00     0.00   0.00  -0.00     0.00  -0.00   0.00
   7   7    -0.00   0.00   0.01    -0.01  -0.01   0.00     0.00  -0.00   0.00
   8   6     0.01  -0.01   0.02    -0.00  -0.00  -0.00    -0.00  -0.00   0.00
   9   7    -0.09   0.08   0.09     0.00   0.00  -0.00    -0.00  -0.00   0.00
  10   6     0.01  -0.58  -0.55     0.00   0.00   0.00     0.00  -0.00  -0.00
  11   7     0.09   0.10   0.06    -0.00  -0.00   0.00    -0.00   0.00   0.00
  12   7     0.00   0.37   0.36    -0.00  -0.00  -0.00    -0.00   0.00   0.00
  13   1    -0.00  -0.00  -0.00    -0.01  -0.00   0.02     0.10   0.01  -0.17
  14   1     0.00  -0.00   0.01    -0.00   0.01   0.00    -0.01   0.02   0.02
  15   1     0.00   0.00   0.00     0.04  -0.03   0.05     0.52  -0.33   0.66
  16   1    -0.00   0.00  -0.00    -0.05   0.00   0.08    -0.15   0.01   0.18
  17   1     0.02  -0.01   0.01     0.48  -0.01  -0.83    -0.04   0.00   0.07
  18   1     0.00  -0.00  -0.01    -0.00  -0.00   0.00    -0.00   0.00   0.00
  19   1    -0.00  -0.01  -0.00    -0.01   0.00   0.01     0.00   0.00  -0.00
  20   1     0.01   0.00  -0.00    -0.00   0.00  -0.00     0.00   0.00  -0.00
  21   1    -0.00   0.00  -0.00     0.01   0.00   0.00     0.00   0.00   0.00
  22   1    -0.01  -0.00   0.00    -0.00  -0.00   0.00     0.00   0.00  -0.00
  23   1    -0.08  -0.09  -0.09     0.00  -0.00  -0.00     0.00   0.00  -0.00
  24   1    -0.03   0.05   0.00    -0.00   0.00   0.00     0.00  -0.00  -0.00
  25   1    -0.02   0.08   0.10     0.00  -0.00  -0.00     0.00  -0.00  -0.00
  26   1    -0.00   0.06   0.03    -0.00  -0.00   0.01    -0.00   0.00   0.00
                     61                     62                     63
                        a                      a                      a 
 Frequencies --  2967.8610              2977.0379              2982.9209
 Red. masses --     1.8118                 1.7202                 1.6022
 Frc consts  --     0.0000                 0.0000                 0.0000
 IR Inten    --     8.4436                 5.4234                49.2361
 Raman Activ --     0.0000                 0.0000                 0.0000
 Depolar     --     0.0000                 0.0000                 0.0000
 Atom AN      X      Y      Z        X      Y      Z        X      Y      Z
   1   6     0.12  -0.08  -0.19    -0.00  -0.07   0.01    -0.04   0.20   0.02
   2   6    -0.07   0.02   0.02    -0.11   0.01   0.12    -0.08   0.02   0.05
   3   6    -0.00   0.00  -0.00    -0.01   0.00   0.02    -0.01   0.00   0.01
   4   6     0.00   0.00   0.00    -0.00  -0.00   0.00    -0.00   0.00   0.00
   5   8     0.00  -0.00  -0.00     0.00   0.00  -0.00     0.00   0.00  -0.00
   6   8     0.00  -0.00   0.00     0.00   0.00   0.00     0.00  -0.00  -0.00
   7   7     0.00  -0.00  -0.00     0.00  -0.00  -0.00     0.00  -0.00  -0.00
   8   6    -0.06  -0.02   0.08     0.12   0.04  -0.13    -0.03  -0.02  -0.01
   9   7    -0.00   0.00   0.00     0.00  -0.00  -0.00    -0.00  -0.00  -0.00
  10   6     0.00   0.00  -0.00    -0.00   0.00   0.00     0.00   0.00  -0.00
  11   7     0.00  -0.00  -0.00    -0.00  -0.00  -0.00    -0.00  -0.00   0.00
  12   7     0.00  -0.00   0.00    -0.00  -0.00  -0.00    -0.00   0.00   0.00
  13   1    -0.35  -0.06   0.61     0.08   0.00  -0.14    -0.12   0.01   0.20
  14   1    -0.09   0.35   0.09    -0.08   0.24   0.08     0.24  -0.75  -0.26
  15   1     0.12  -0.08   0.18     0.07  -0.05   0.13     0.09  -0.06   0.14
  16   1     0.16   0.01  -0.28     0.33   0.02  -0.57     0.19   0.01  -0.33
  17   1    -0.00   0.00   0.01     0.03   0.00  -0.04     0.01  -0.00  -0.03
  18   1    -0.00   0.00  -0.00    -0.00   0.00  -0.00    -0.00   0.00  -0.00
  19   1    -0.00   0.00   0.00    -0.00   0.00   0.00    -0.00   0.00   0.00
  20   1    -0.00   0.00   0.00    -0.00   0.00   0.00    -0.00   0.00  -0.00
  21   1     0.04   0.03   0.02    -0.14  -0.10  -0.04     0.12   0.09   0.02
  22   1     0.18   0.04  -0.32    -0.29  -0.06   0.51    -0.01  -0.00   0.01
  23   1    -0.00   0.00   0.00     0.00  -0.00  -0.00    -0.00   0.00   0.00
  24   1     0.00   0.00   0.00     0.00   0.00   0.00    -0.00   0.00  -0.00
  25   1    -0.00   0.00   0.00     0.00  -0.00  -0.00     0.00  -0.00  -0.00
  26   1    -0.00   0.00   0.00    -0.00   0.00   0.00    -0.00  -0.00   0.00
                     64                     65                     66
                        a                      a                      a 
 Frequencies --  2986.3686              2999.3210              3119.1382
 Red. masses --     1.7894                 1.6286                 1.8794
 Frc consts  --     0.0000                 0.0000                 0.0000
 IR Inten    --    70.8692                50.6926               330.0521
 Raman Activ --     0.0000                 0.0000                 0.0000
 Depolar     --     0.0000                 0.0000                 0.0000
 Atom AN      X      Y      Z        X      Y      Z        X      Y      Z
   1   6    -0.07  -0.03   0.13     0.00   0.04   0.00    -0.00  -0.00   0.00
   2   6    -0.06  -0.00   0.10    -0.00   0.00  -0.01     0.00  -0.00   0.00
   3   6    -0.01   0.00   0.02    -0.00  -0.00   0.00     0.00   0.00  -0.00
   4   6    -0.00   0.00   0.00    -0.00  -0.00   0.00     0.00  -0.02  -0.01
   5   8    -0.00  -0.00   0.00     0.00   0.00  -0.00     0.14   0.00  -0.20
   6   8     0.00  -0.00  -0.00    -0.00  -0.00   0.00    -0.00   0.00   0.00
   7   7     0.00  -0.00  -0.00    -0.00  -0.00   0.00    -0.00   0.00  -0.00
   8   6    -0.10  -0.03   0.15     0.17   0.14   0.08    -0.00  -0.00   0.00
   9   7    -0.00   0.00   0.00     0.00   0.01   0.00     0.01   0.00  -0.01
  10   6     0.00  -0.00   0.00     0.00   0.00   0.00    -0.01   0.01   0.02
  11   7     0.00   0.00   0.00     0.00  -0.00  -0.00    -0.00  -0.00  -0.00
  12   7    -0.00   0.00  -0.00    -0.00  -0.00  -0.00    -0.00  -0.01  -0.01
  13   1     0.28   0.03  -0.49    -0.03   0.00   0.06     0.00   0.00  -0.00
  14   1    -0.03   0.05   0.04     0.05  -0.14  -0.05    -0.00   0.00   0.00
  15   1    -0.01   0.00   0.01     0.01  -0.01   0.01    -0.00   0.00  -0.00
  16   1     0.22   0.01  -0.37    -0.01  -0.00   0.01    -0.00   0.00   0.00
  17   1     0.03  -0.00  -0.05     0.00  -0.00  -0.00    -0.00  -0.00   0.00
  18   1    -0.00   0.00  -0.00    -0.00   0.00  -0.00    -0.00   0.01  -0.01
  19   1    -0.00   0.00   0.00    -0.00  -0.00  -0.00     0.00  -0.00   0.00
  20   1    -0.00   0.00   0.00    -0.00  -0.00  -0.00     0.00  -0.00   0.00
  21   1     0.05   0.04   0.03    -0.76  -0.53  -0.11     0.01   0.01   0.00
  22   1     0.32   0.06  -0.55     0.13   0.04  -0.16    -0.00  -0.00  -0.00
  23   1     0.00  -0.00   0.00    -0.00  -0.00   0.00    -0.00   0.00   0.00
  24   1    -0.00  -0.00  -0.00    -0.00  -0.00   0.00    -0.00   0.00   0.00
  25   1     0.00  -0.00  -0.00    -0.00  -0.00  -0.00    -0.00  -0.01  -0.00
  26   1     0.00  -0.00  -0.00    -0.01   0.00   0.01    -0.55   0.07   0.80
                     67                     68                     69
                        a                      a                      a 
 Frequencies --  3385.9386              3398.6034              3418.6782
 Red. masses --     1.4995                 1.8662                 2.0845
 Frc consts  --     0.0000                 0.0000                 0.0000
 IR Inten    --    14.6130                20.6204                 3.3899
 Raman Activ --     0.0000                 0.0000                 0.0000
 Depolar     --     0.0000                 0.0000                 0.0000
 Atom AN      X      Y      Z        X      Y      Z        X      Y      Z
   1   6     0.00  -0.00  -0.00     0.00  -0.00  -0.00     0.00   0.00  -0.00
   2   6    -0.00  -0.00  -0.00     0.00  -0.00   0.00    -0.00  -0.00  -0.00
   3   6     0.01  -0.00  -0.00     0.00  -0.00  -0.00     0.00   0.00  -0.01
   4   6    -0.00   0.00  -0.00     0.00  -0.00  -0.00    -0.00   0.00   0.00
   5   8     0.00  -0.00  -0.00    -0.00  -0.00  -0.00    -0.00  -0.00   0.00
   6   8    -0.00   0.00  -0.00    -0.00   0.00  -0.00    -0.00  -0.00   0.00
   7   7     0.19  -0.03  -0.02     0.00   0.00  -0.00    -0.04   0.10  -0.27
   8   6    -0.00  -0.00  -0.00    -0.00  -0.00   0.00     0.00   0.00  -0.00
   9   7     0.00   0.00  -0.00     0.00   0.00  -0.00    -0.00  -0.00   0.00
  10   6    -0.00   0.00   0.00    -0.01  -0.01  -0.00     0.00  -0.00  -0.00
  11   7    -0.00   0.00  -0.00     0.00  -0.00  -0.01    -0.00   0.00   0.00
  12   7     0.00  -0.00  -0.00    -0.20   0.03   0.16     0.00  -0.00  -0.00
  13   1    -0.00  -0.00   0.00    -0.00  -0.00   0.00    -0.00  -0.00   0.00
  14   1    -0.00  -0.00  -0.00    -0.00   0.00   0.00     0.00  -0.00  -0.00
  15   1    -0.00   0.00  -0.00    -0.00   0.00  -0.00     0.00  -0.00   0.00
  16   1    -0.00   0.00   0.00     0.00   0.00  -0.00    -0.00   0.00   0.00
  17   1    -0.00   0.00   0.01    -0.00   0.00   0.00    -0.00   0.00   0.00
  18   1     0.00  -0.01   0.00     0.00  -0.00   0.00     0.00  -0.00   0.00
  19   1    -0.22  -0.14   0.58    -0.01  -0.00   0.02    -0.30  -0.13   0.66
  20   1    -0.50   0.27  -0.48    -0.00   0.00  -0.00     0.44  -0.23   0.36
  21   1     0.00   0.00   0.00     0.00   0.00  -0.00    -0.00  -0.00  -0.00
  22   1    -0.00  -0.00   0.00    -0.00   0.00  -0.00    -0.00   0.00   0.00
  23   1     0.00  -0.00  -0.00    -0.00   0.00   0.00     0.00  -0.00  -0.00
  24   1     0.00   0.00   0.00     0.00   0.01   0.02    -0.00  -0.00  -0.00
  25   1    -0.01   0.00   0.01     0.77  -0.09  -0.58    -0.01   0.00   0.01
  26   1    -0.00   0.00   0.00     0.00   0.01   0.00     0.00  -0.00  -0.00
                     70                     71                     72
                        a                      a                      a 
 Frequencies --  3452.2737              3504.1720              3523.9226
 Red. masses --     1.4758                 2.1354                 1.8668
 Frc consts  --     0.0000                 0.0000                 0.0000
 IR Inten    --     1.6666                 0.7442                43.1606
 Raman Activ --     0.0000                 0.0000                 0.0000
 Depolar     --     0.0000                 0.0000                 0.0000
 Atom AN      X      Y      Z        X      Y      Z        X      Y      Z
   1   6    -0.00  -0.00   0.00     0.00  -0.00  -0.00    -0.00   0.00   0.00
   2   6    -0.00   0.00   0.00     0.00  -0.00   0.00    -0.00   0.00   0.00
   3   6     0.00   0.00  -0.00    -0.00   0.00   0.00     0.00   0.00  -0.00
   4   6     0.00  -0.00   0.00     0.00   0.00   0.00     0.00   0.00  -0.01
   5   8     0.00   0.00  -0.00     0.00  -0.00  -0.00     0.00  -0.00  -0.00
   6   8    -0.00   0.00  -0.00    -0.00   0.00  -0.00    -0.08   0.19  -0.12
   7   7    -0.00   0.00  -0.00     0.00  -0.00   0.00    -0.00   0.00   0.00
   8   6     0.00   0.00   0.00     0.00   0.00   0.00    -0.00   0.00   0.00
   9   7     0.00  -0.00  -0.00     0.00  -0.00  -0.00    -0.00   0.00   0.00
  10   6    -0.01   0.00  -0.00    -0.00   0.00   0.01     0.00  -0.00  -0.00
  11   7    -0.18  -0.02  -0.04    -0.09   0.12   0.25     0.00  -0.00  -0.00
  12   7     0.00   0.00   0.00    -0.00   0.00   0.00     0.00   0.00  -0.00
  13   1    -0.00  -0.00  -0.00    -0.00  -0.00   0.00    -0.00   0.00   0.00
  14   1     0.00  -0.00  -0.00    -0.00  -0.00  -0.00     0.00  -0.00  -0.00
  15   1    -0.00  -0.00  -0.00    -0.00   0.00  -0.00     0.00  -0.00   0.00
  16   1     0.00   0.00  -0.00     0.00  -0.00  -0.00     0.00  -0.00  -0.00
  17   1    -0.00  -0.00   0.00    -0.00   0.00   0.00    -0.00  -0.00   0.00
  18   1     0.00  -0.00   0.00     0.00  -0.00   0.00     0.32  -0.76   0.52
  19   1     0.00   0.00  -0.00     0.00   0.00  -0.00     0.00   0.00  -0.00
  20   1     0.00  -0.00   0.00    -0.00   0.00  -0.00     0.00  -0.00   0.00
  21   1     0.00  -0.00   0.00    -0.00  -0.00  -0.00    -0.00  -0.00  -0.00
  22   1     0.00   0.00  -0.00    -0.00  -0.00   0.00     0.00   0.00  -0.00
  23   1     0.60  -0.20  -0.41     0.50  -0.15  -0.30    -0.00   0.00   0.00
  24   1     0.10   0.27   0.56    -0.15  -0.30  -0.66     0.00   0.00   0.00
  25   1    -0.01   0.00   0.00     0.02  -0.00  -0.01    -0.00   0.00   0.00
  26   1    -0.00  -0.00   0.00    -0.00   0.00   0.01    -0.01   0.00   0.01
