      -----------------------------------------------------------      
     |                   =====================                   |     
     |                           x T B                           |     
     |                   =====================                   |     
     |                         S. Grimme                         |     
     |          Mulliken Center for Theoretical Chemistry        |     
     |                    University of Bonn                     |     
      -----------------------------------------------------------      

   * xtb version 6.6.0 (8843059) compiled by 'stahn@majestix' on 2023-02-09

   xtb is free software: you can redistribute it and/or modify it under
   the terms of the GNU Lesser General Public License as published by
   the Free Software Foundation, either version 3 of the License, or
   (at your option) any later version.
   
   xtb is distributed in the hope that it will be useful,
   but WITHOUT ANY WARRANTY; without even the implied warranty of
   MERCHANTABILITY or FITNESS FOR A PARTICULAR PURPOSE.  See the
   GNU Lesser General Public License for more details.
   
   Cite this work as:
   * C. Bannwarth, E. Caldeweyher, S. Ehlert, A. Hansen, P. Pracht,
     J. Seibert, S. Spicher, S. Grimme, WIREs Comput. Mol. Sci., 2020, 11,
     e01493. DOI: 10.1002/wcms.1493
   
   for GFN2-xTB:
   * C. Bannwarth, S. Ehlert and S. Grimme., J. Chem. Theory Comput., 2019,
     15, 1652-1671. DOI: 10.1021/acs.jctc.8b01176
   for GFN1-xTB:
   * S. Grimme, C. Bannwarth, P. Shushkov, J. Chem. Theory Comput., 2017,
     13, 1989-2009. DOI: 10.1021/acs.jctc.7b00118
   for GFN0-xTB:
   * P. Pracht, E. Caldeweyher, S. Ehlert, S. Grimme, ChemRxiv, 2019, preprint.
     DOI: 10.26434/chemrxiv.8326202.v1
   for GFN-FF:
   * S. Spicher and S. Grimme, Angew. Chem. Int. Ed., 2020, 59, 15665-15673.
     DOI: 10.1002/anie.202004239
   
   for ALPB and GBSA implicit solvation:
   * S. Ehlert, M. Stahn, S. Spicher, S. Grimme, J. Chem. Theory Comput.,
     2021, 17, 4250-4261. DOI: 10.1021/acs.jctc.1c00471
   
   for DFT-D4:
   * E. Caldeweyher, C. Bannwarth and S. Grimme, J. Chem. Phys., 2017,
     147, 034112. DOI: 10.1063/1.4993215
   * E. Caldeweyher, S. Ehlert, A. Hansen, H. Neugebauer, S. Spicher,
     C. Bannwarth and S. Grimme, J. Chem. Phys., 2019, 150, 154122.
     DOI: 10.1063/1.5090222
   * E. Caldeweyher, J.-M. Mewes, S. Ehlert and S. Grimme, Phys. Chem. Chem. Phys.
     2020, 22, 8499-8512. DOI: 10.1039/D0CP00502A
   
   for sTDA-xTB:
   * S. Grimme and C. Bannwarth, J. Chem. Phys., 2016, 145, 054103.
     DOI: 10.1063/1.4959605
   
   in the mass-spec context:
   * V. Asgeirsson, C. Bauer and S. Grimme, Chem. Sci., 2017, 8, 4879.
     DOI: 10.1039/c7sc00601b
   * J. Koopman and S. Grimme, ACS Omega 2019, 4, 12, 15120-15133.
     DOI: 10.1021/acsomega.9b02011
   
   for metadynamics refer to:
   * S. Grimme, J. Chem. Theory Comput., 2019, 155, 2847-2862
     DOI: 10.1021/acs.jctc.9b00143
   
   for SPH calculations refer to:
   * S. Spicher and S. Grimme, J. Chem. Theory Comput., 2021, 17, 1701-1714
     DOI: 10.1021/acs.jctc.0c01306
   
   with help from (in alphabetical order)
   P. Atkinson, C. Bannwarth, F. Bohle, G. Brandenburg, E. Caldeweyher
   M. Checinski, S. Dohm, S. Ehlert, S. Ehrlich, I. Gerasimov, C. Hölzer
   A. Katbashev, J. Koopman, C. Lavigne, S. Lehtola, F. März, M. Müller,
   F. Musil, H. Neugebauer, J. Pisarek, C. Plett, P. Pracht, F. Pultar,
   J. Seibert, P. Shushkov, S. Spicher, M. Stahn, M. Steiner, T. Strunk,
   J. Stückrath, T. Rose, and J. Unsleber
   
 * started run on 2025/07/30 at 12:34:54.346     

           -------------------------------------------------
          |                Calculation Setup                |
           -------------------------------------------------

          program call               : xtb --gfn2 in.xyz --ohess vtight
          coordinate file            : in.xyz
          omp threads                :                     8

   ID    Z sym.   atoms
    1    6 C      1-4, 8, 10
    2    8 O      5, 6
    3    7 N      7, 9, 11, 12
    4    1 H      13-26

           -------------------------------------------------
          |                 G F N 2 - x T B                 |
           -------------------------------------------------

        Reference                      10.1021/acs.jctc.8b01176
      * Hamiltonian:
        H0-scaling (s, p, d)           1.850000    2.230000    2.230000
        zeta-weighting                 0.500000
      * Dispersion:
        s8                             2.700000
        a1                             0.520000
        a2                             5.000000
        s9                             5.000000
      * Repulsion:
        kExp                           1.500000    1.000000
        rExp                           1.000000
      * Coulomb:
        alpha                          2.000000
        third order                    shell-resolved
        anisotropic                    true
        a3                             3.000000
        a5                             4.000000
        cn-shift                       1.200000
        cn-exp                         4.000000
        max-rad                        5.000000


          ...................................................
          :                      SETUP                      :
          :.................................................:
          :  # basis functions                  62          :
          :  # atomic orbitals                  62          :
          :  # shells                           38          :
          :  # electrons                        70          :
          :  max. iterations                   250          :
          :  Hamiltonian                  GFN2-xTB          :
          :  restarted?                      false          :
          :  GBSA solvation                  false          :
          :  PC potential                    false          :
          :  electronic temp.          300.0000000     K    :
          :  accuracy                    1.0000000          :
          :  -> integral cutoff          0.2500000E+02      :
          :  -> integral neglect         0.1000000E-07      :
          :  -> SCF convergence          0.1000000E-05 Eh   :
          :  -> wf. convergence          0.1000000E-03 e    :
          :  Broyden damping             0.4000000          :
          ...................................................

 iter      E             dE          RMSdq      gap      omega  full diag
   1    -40.1997769 -0.401998E+02  0.356E+00    4.90       0.0  T
   2    -40.2401441 -0.403671E-01  0.200E+00    5.08       1.0  T
   3    -40.2420703 -0.192619E-02  0.721E-01    4.61       1.0  T
   4    -40.2434354 -0.136511E-02  0.192E-01    4.59       1.0  T
   5    -40.2436638 -0.228381E-03  0.710E-02    4.56       1.0  T
   6    -40.2436998 -0.360743E-04  0.342E-02    4.58       1.0  T
   7    -40.2437014 -0.159822E-05  0.999E-03    4.58       2.0  T
   8    -40.2437025 -0.106489E-05  0.304E-03    4.58       6.5  T
   9    -40.2437025 -0.224532E-07  0.138E-03    4.58      14.2  T
  10    -40.2437025 -0.307149E-08  0.388E-04    4.58      50.6  T
  11    -40.2437025 -0.613774E-09  0.107E-04    4.58     183.1  T

   *** convergence criteria satisfied after 11 iterations ***

         #    Occupation            Energy/Eh            Energy/eV
      -------------------------------------------------------------
         1        2.0000           -0.7016630             -19.0932
       ...           ...                  ...                  ...
        29        2.0000           -0.4419158             -12.0251
        30        2.0000           -0.4333202             -11.7912
        31        2.0000           -0.4121359             -11.2148
        32        2.0000           -0.3960601             -10.7773
        33        2.0000           -0.3770295             -10.2595
        34        2.0000           -0.3675569             -10.0017
        35        2.0000           -0.3563219              -9.6960 (HOMO)
        36                         -0.1878825              -5.1125 (LUMO)
        37                         -0.0122139              -0.3324
        38                          0.0270241               0.7354
        39                          0.0401293               1.0920
        40                          0.0609218               1.6578
       ...                                ...                  ...
        62                          0.5657036              15.3936
      -------------------------------------------------------------
                  HL-Gap            0.1684394 Eh            4.5835 eV
             Fermi-level           -0.2721022 Eh           -7.4043 eV

 SCC (total)                   0 d,  0 h,  0 min,  0.029 sec
 SCC setup                      ...        0 min,  0.000 sec (  0.818%)
 Dispersion                     ...        0 min,  0.000 sec (  0.893%)
 classical contributions        ...        0 min,  0.000 sec (  0.112%)
 integral evaluation            ...        0 min,  0.002 sec (  5.352%)
 iterations                     ...        0 min,  0.019 sec ( 64.012%)
 molecular gradient             ...        0 min,  0.008 sec ( 28.032%)
 printout                       ...        0 min,  0.000 sec (  0.672%)

         :::::::::::::::::::::::::::::::::::::::::::::::::::::
         ::                     SUMMARY                     ::
         :::::::::::::::::::::::::::::::::::::::::::::::::::::
         :: total energy             -39.826943992072 Eh    ::
         :: gradient norm              0.000075621249 Eh/a0 ::
         :: HOMO-LUMO gap              4.583470482039 eV    ::
         ::.................................................::
         :: SCC energy               -40.243702525545 Eh    ::
         :: -> isotropic ES            0.095299403983 Eh    ::
         :: -> anisotropic ES         -0.001848322685 Eh    ::
         :: -> anisotropic XC          0.015243276698 Eh    ::
         :: -> dispersion             -0.023820583048 Eh    ::
         :: repulsion energy           0.416505952687 Eh    ::
         :: add. restraining           0.000000000000 Eh    ::
         :: total charge              -0.000000000000 e     ::
         :::::::::::::::::::::::::::::::::::::::::::::::::::::

      ----------------------------------------------------------- 
     |                   =====================                   |
     |                        A N C O P T                        |
     |                   =====================                   |
     |               Approximate Normal Coordinate               |
     |                Rational Function Optimizer                |
      ----------------------------------------------------------- 

          ...................................................
          :                      SETUP                      :
          :.................................................:
          :   optimization level         verytight          :
          :   max. optcycles                   520          :
          :   ANC micro-cycles                  20          :
          :   degrees of freedom                72          :
          :.................................................:
          :   RF solver                   davidson          :
          :   write xtbopt.log                true          :
          :   linear?                        false          :
          :   energy convergence         0.1000000E-06 Eh   :
          :   grad. convergence          0.2000000E-03 Eh/α :
          :   maxmium RF displ.          1.0000000          :
          :   Hlow (freq-cutoff)         0.1000000E-01      :
          :   Hmax (freq-cutoff)         5.0000000          :
          :   S6 in model hess.         20.0000000          :
          ...................................................

generating ANC from model Hessian ...
Using Lindh-Hessian (1995)
 Shifting diagonal of input Hessian by   7.520028443457871E-003
 Lowest  eigenvalues of input Hessian
    0.000000    0.000000    0.000000    0.000000    0.000000    0.000000
    0.010000    0.011223    0.012253    0.016280    0.018442    0.021067
    0.022544    0.023279    0.025415    0.027409    0.031257    0.032356
 Highest eigenvalues
    1.475724    1.489249    1.585149    1.691975    2.030985    2.245030
 

........................................................................
.............................. CYCLE    1 ..............................
........................................................................

 iter      E             dE          RMSdq      gap      omega  full diag
   1    -40.2437025 -0.402437E+02  0.460E-05    4.58       0.0  T
   2    -40.2437025 -0.494538E-11  0.269E-05    4.58     729.5  T
   3    -40.2437025 -0.653699E-12  0.962E-06    4.58    2038.0  T
     SCC iter.                  ...        0 min,  0.003 sec
     gradient                   ...        0 min,  0.004 sec
 * total energy  :   -39.8269440 Eh     change       -0.5440626E-10 Eh
   gradient norm :     0.0000762 Eh/α   predicted     0.0000000E+00 (-100.00%)
   displ. norm   :     0.0001143 α      lambda        0.0000000E+00
   maximum displ.:     0.0000428 α      in ANC's #60, #70, #41, ...

   *** GEOMETRY OPTIMIZATION CONVERGED AFTER 1 ITERATIONS ***

------------------------------------------------------------------------
 total energy gain   :        -0.0000000 Eh       -0.0000 kcal/mol
 total RMSD          :         0.0000000 a0        0.0000 Å
 total power (kW/mol):        -0.0000001 (step)   -0.0000 (real)
------------------------------------------------------------------------

 ANCopt (total)                0 d,  0 h,  0 min,  0.073 sec
 optimizer setup                ...        0 min,  0.000 sec (  0.204%)
 model hessian                  ...        0 min,  0.057 sec ( 78.664%)
 ANC generation                 ...        0 min,  0.001 sec (  1.106%)
 coordinate transformation      ...        0 min,  0.000 sec (  0.030%)
 single point calculation       ...        0 min,  0.014 sec ( 19.563%)
 optimization log               ...        0 min,  0.000 sec (  0.200%)
 hessian update                 ...        0 min,  0.000 sec (  0.003%)
 rational function              ...        0 min,  0.000 sec (  0.067%)

================
 final structure:
================
26
 xtb: 6.6.0 (8843059)
C           -0.52370700000000        2.14281500000000       -0.12958700000000
C           -1.74992900000000        1.25485400000000       -0.31198100000000
C           -1.34123300000000       -0.18840100000000       -0.65715100000000
C           -0.38779500000000       -0.72117300000000        0.44238100000000
O            0.00833000000000       -2.01962300000000        0.24559700000000
O           -1.04175500000000       -0.67996600000000        1.66973300000000
N           -2.45522700000000       -1.10608200000000       -0.78248400000000
C            0.39678900000000        1.52282600000000        0.92243600000000
N            0.79248000000000        0.18298300000000        0.51405200000000
C            1.78540800000000        0.02649000000000       -0.42497000000000
N            2.82836100000000        0.93572200000000       -0.35412200000000
N            1.72726900000000       -0.90926300000000       -1.29416200000000
H            0.01910500000000        2.22319300000000       -1.07456800000000
H           -0.82294100000000        3.14391800000000        0.18523200000000
H           -2.38938000000000        1.64747400000000       -1.10694500000000
H           -2.32453000000000        1.23385300000000        0.61736600000000
H           -0.78313000000000       -0.20369700000000       -1.60123400000000
H           -0.71801600000000       -1.43834800000000        2.17209800000000
H           -2.86145500000000       -1.26853700000000        0.13289300000000
H           -3.16917300000000       -0.70959700000000       -1.38377800000000
H            1.27425900000000        2.14799900000000        1.08165300000000
H           -0.13906000000000        1.41980300000000        1.86854100000000
H            3.65123700000000        0.66561000000000       -0.87138600000000
H            3.03212000000000        1.33950600000000        0.54540900000000
H            2.54913000000000       -0.98078500000000       -1.88300200000000
H            0.57853000000000       -2.01984300000000       -0.55655500000000
 
 Bond Distances (Angstroems)
 ---------------------------
C1-C2=1.5249         C1-C8=1.5292         C1-H13=1.0927        C1-H14=1.0913        C2-C1=1.5249         C2-C3=1.5392         
C2-H15=1.0932        C2-H16=1.0928        C3-C2=1.5392         C3-C4=1.5498         C3-N7=1.4487         C3-H17=1.0968        
C4-C3=1.5498         C4-O5=1.3717         C4-O6=1.3913         C4-N9=1.4885         O5-C4=1.3717         O5-H26=0.9842        
O6-C4=1.3913         O6-H18=0.9656        N7-C3=1.4487         N7-H19=1.0146        N7-H20=1.0141        C8-C1=1.5292         
C8-N9=1.4555         C8-H21=1.0891        C8-H22=1.0922        N9-C4=1.4885         N9-C8=1.4555         N9-C10=1.3756        
C10-N9=1.3756        C10-N11=1.3855       C10-N12=1.2785       N11-C10=1.3855       N11-H23=1.0088       N11-H24=1.0068       
N12-C10=1.2785       N12-H25=1.0136       H13-C1=1.0927        H14-C1=1.0913        H15-C2=1.0932        H16-C2=1.0928        
H17-C3=1.0968        H18-O6=0.9656        H19-N7=1.0146        H20-N7=1.0141        H21-C8=1.0891        H22-C8=1.0922        
H23-N11=1.0088       H24-N11=1.0068       H25-N12=1.0136       H26-O5=0.9842        
 C  H  Rav=1.0926 sigma=0.0022  Rmin=1.0891  Rmax=1.0968     7
 C  C  Rav=1.5358 sigma=0.0096  Rmin=1.5249  Rmax=1.5498     4
 N  H  Rav=1.0116 sigma=0.0032  Rmin=1.0068  Rmax=1.0146     5
 N  C  Rav=1.4054 sigma=0.0692  Rmin=1.2785  Rmax=1.4885     6
 O  H  Rav=0.9749 sigma=0.0093  Rmin=0.9656  Rmax=0.9842     2
 O  C  Rav=1.3815 sigma=0.0098  Rmin=1.3717  Rmax=1.3913     2
 
 selected bond angles (degree)
 --------------------
C8-C1-C2=109.28                H13-C1-C2=109.81               H13-C1-C8=109.01               H14-C1-C2=110.38               
H14-C1-C8=109.79               H14-C1-H13=108.55              C3-C2-C1=111.06                H15-C2-C1=110.38               
H15-C2-C3=109.21               H16-C2-C1=109.41               H16-C2-C3=108.20               H16-C2-H15=108.53              
C4-C3-C2=109.06                N7-C3-C2=114.15                N7-C3-C4=108.46                H17-C3-C2=109.95               
H17-C3-C4=107.03               H17-C3-N7=107.94               O5-C4-C3=113.66                O6-C4-C3=109.06                
O6-C4-O5=106.88                N9-C4-C3=108.25                N9-C4-O5=110.67                N9-C4-O6=108.19                
H26-O5-C4=106.53               H18-O6-C4=106.15               H19-N7-C3=109.35               H20-N7-C3=110.18               
H20-N7-H19=108.40              N9-C8-C1=110.11                H21-C8-C1=110.66               H21-C8-N9=110.51               
H22-C8-C1=109.81               H22-C8-N9=106.83               H22-C8-H21=108.83              C8-N9-C4=110.92                
C10-N9-C4=118.06               C10-N9-C8=119.50               N11-C10-N9=115.71              N12-C10-N9=120.97              
N12-C10-N11=123.32             
 
 selected dihedral angles (degree)
 ---------------------------------
C3-C2-C1-C8=304.93            C3-C2-C1-H13= 64.46           C3-C2-C1-H14=184.10           H15-C2-C1-C8=183.66           
H15-C2-C1-H13=303.18          H15-C2-C1-H14= 62.82          H16-C2-C1-C8= 64.30           H16-C2-C1-H13=183.83          
H16-C2-C1-H14=303.47          C4-C3-C2-C1= 55.73            C4-C3-C2-H15=177.68           C4-C3-C2-H16=295.64           
N7-C3-C2-C1=177.20            N7-C3-C2-H15=299.16           N7-C3-C2-H16= 57.11           H17-C3-C2-C1=298.66           
H17-C3-C2-H15= 60.61          H17-C3-C2-H16=178.57          O5-C4-C3-C2=178.35            O5-C4-C3-N7= 53.48            
O5-C4-C3-H17=297.26           O6-C4-C3-C2= 59.23            O6-C4-C3-N7=294.36            O6-C4-C3-H17=178.14           
N9-C4-C3-C2=301.73            N9-C4-C3-N7=176.86            N9-C4-C3-H17= 60.64           H26-O5-C4-C3= 67.51           
H26-O5-C4-O6=187.87           H26-O5-C4-N9=305.46           H18-O6-C4-C3=146.22           H18-O6-C4-O5= 22.95           
H18-O6-C4-N9=263.75           H19-N7-C3-C2=289.97           H19-N7-C3-C4= 51.78           H19-N7-C3-H17=167.41          
H20-N7-C3-C2= 49.01           H20-N7-C3-C4=170.82           H20-N7-C3-H17=286.45          N9-C8-C1-C2= 58.39            
N9-C8-C1-H13=298.38           N9-C8-C1-H14=179.59           H21-C8-C1-C2=180.86           H21-C8-C1-H13= 60.85          
H21-C8-C1-H14=302.06          H22-C8-C1-C2=301.03           H22-C8-C1-H13=181.01          H22-C8-C1-H14= 62.22          
C8-N9-C4-C3= 63.45            C8-N9-C4-O5=188.62            C8-N9-C4-O6=305.40            C10-N9-C4-C3=280.20           
C10-N9-C4-O5= 45.37           C10-N9-C4-O6=162.15           C4-N9-C8-C1=296.18            C4-N9-C8-H21=173.62           
C4-N9-C8-H22= 55.37           C10-N9-C8-C1= 78.83           C10-N9-C8-H21=316.27          C10-N9-C8-H22=198.02          
N11-C10-N9-C4=176.90          N11-C10-N9-C8= 36.85          N12-C10-N9-C4=356.70          N12-C10-N9-C8=216.65          
           -------------------------------------------------
          |                Final Singlepoint                |
           -------------------------------------------------

          ...................................................
          :                      SETUP                      :
          :.................................................:
          :  # basis functions                  62          :
          :  # atomic orbitals                  62          :
          :  # shells                           38          :
          :  # electrons                        70          :
          :  max. iterations                   250          :
          :  Hamiltonian                  GFN2-xTB          :
          :  restarted?                      false          :
          :  GBSA solvation                  false          :
          :  PC potential                    false          :
          :  electronic temp.          300.0000000     K    :
          :  accuracy                    1.0000000          :
          :  -> integral cutoff          0.2500000E+02      :
          :  -> integral neglect         0.1000000E-07      :
          :  -> SCF convergence          0.1000000E-05 Eh   :
          :  -> wf. convergence          0.1000000E-03 e    :
          :  Broyden damping             0.4000000          :
          ...................................................

 iter      E             dE          RMSdq      gap      omega  full diag
   1    -40.2437025 -0.402437E+02  0.339E-06    4.58       0.0  T
   2    -40.2437025  0.355271E-13  0.197E-06    4.58    9954.1  T
   3    -40.2437025 -0.213163E-13  0.721E-07    4.58   27217.2  T

   *** convergence criteria satisfied after 3 iterations ***

         #    Occupation            Energy/Eh            Energy/eV
      -------------------------------------------------------------
         1        2.0000           -0.7016623             -19.0932
       ...           ...                  ...                  ...
        29        2.0000           -0.4419157             -12.0251
        30        2.0000           -0.4333204             -11.7912
        31        2.0000           -0.4121357             -11.2148
        32        2.0000           -0.3960599             -10.7773
        33        2.0000           -0.3770292             -10.2595
        34        2.0000           -0.3675566             -10.0017
        35        2.0000           -0.3563221              -9.6960 (HOMO)
        36                         -0.1878820              -5.1125 (LUMO)
        37                         -0.0122135              -0.3323
        38                          0.0270243               0.7354
        39                          0.0401295               1.0920
        40                          0.0609221               1.6578
       ...                                ...                  ...
        62                          0.5657041              15.3936
      -------------------------------------------------------------
                  HL-Gap            0.1684401 Eh            4.5835 eV
             Fermi-level           -0.2721021 Eh           -7.4043 eV

 SCC (total)                   0 d,  0 h,  0 min,  0.016 sec
 SCC setup                      ...        0 min,  0.001 sec (  5.960%)
 Dispersion                     ...        0 min,  0.000 sec (  0.849%)
 classical contributions        ...        0 min,  0.005 sec ( 28.331%)
 integral evaluation            ...        0 min,  0.001 sec (  8.109%)
 iterations                     ...        0 min,  0.005 sec ( 29.595%)
 molecular gradient             ...        0 min,  0.004 sec ( 26.145%)
 printout                       ...        0 min,  0.000 sec (  0.793%)

         :::::::::::::::::::::::::::::::::::::::::::::::::::::
         ::                     SUMMARY                     ::
         :::::::::::::::::::::::::::::::::::::::::::::::::::::
         :: total energy             -39.826943992127 Eh    ::
         :: gradient norm              0.000076256414 Eh/a0 ::
         :: HOMO-LUMO gap              4.583489311011 eV    ::
         ::.................................................::
         :: SCC energy               -40.243702525600 Eh    ::
         :: -> isotropic ES            0.095300203770 Eh    ::
         :: -> anisotropic ES         -0.001848202000 Eh    ::
         :: -> anisotropic XC          0.015243317166 Eh    ::
         :: -> dispersion             -0.023820591193 Eh    ::
         :: repulsion energy           0.416505952687 Eh    ::
         :: add. restraining           0.000000000000 Eh    ::
         :: total charge              -0.000000000000 e     ::
         :::::::::::::::::::::::::::::::::::::::::::::::::::::

           ------------------------------------------------- 
          |                Numerical Hessian                |
           ------------------------------------------------- 
step length          :   0.00500
SCC accuracy         :   0.30000
Hessian scale factor :   1.00000
frozen atoms in %    :   0.00000    0
RMS gradient         :   0.00008
estimated CPU  time      0.87 min
estimated wall time      0.12 min

writing file <hessian>.

 projected vibrational frequencies (cm⁻¹)
eigval :       -0.00    -0.00    -0.00     0.00     0.00     0.00
eigval :       57.37    90.67   106.59   213.22   226.51   252.39
eigval :      258.96   272.84   313.25   329.36   361.96   387.66
eigval :      399.25   418.45   436.58   490.77   524.77   545.10
eigval :      572.69   592.68   602.04   626.11   677.11   743.06
eigval :      750.53   875.16   896.47   898.44   935.63   955.80
eigval :      999.99  1028.58  1033.87  1052.01  1085.65  1101.18
eigval :     1113.17  1115.75  1146.80  1157.30  1183.19  1202.28
eigval :     1208.07  1244.84  1273.54  1294.40  1317.37  1329.41
eigval :     1336.26  1338.19  1354.78  1400.88  1458.21  1473.50
eigval :     1484.06  1499.74  1551.99  1674.33  2925.29  2956.20
eigval :     2967.86  2977.04  2982.92  2986.37  2999.32  3119.14
eigval :     3385.94  3398.60  3418.68  3452.27  3504.17  3523.92
           -------------------------------------------------
          |                Property Printout                |
           -------------------------------------------------

    * Orbital Energies and Occupations

         #    Occupation            Energy/Eh            Energy/eV
      -------------------------------------------------------------
         1        2.0000           -0.7016622             -19.0932
       ...           ...                  ...                  ...
        23        2.0000           -0.4862500             -13.2315
        24        2.0000           -0.4802616             -13.0686
        25        2.0000           -0.4687442             -12.7552
        26        2.0000           -0.4593033             -12.4983
        27        2.0000           -0.4549616             -12.3801
        28        2.0000           -0.4495182             -12.2320
        29        2.0000           -0.4419157             -12.0251
        30        2.0000           -0.4333204             -11.7912
        31        2.0000           -0.4121357             -11.2148
        32        2.0000           -0.3960599             -10.7773
        33        2.0000           -0.3770292             -10.2595
        34        2.0000           -0.3675566             -10.0017
        35        2.0000           -0.3563221              -9.6960 (HOMO)
        36                         -0.1878820              -5.1125 (LUMO)
        37                         -0.0122135              -0.3323
        38                          0.0270243               0.7354
        39                          0.0401295               1.0920
        40                          0.0609221               1.6578
        41                          0.0728621               1.9827
        42                          0.0838470               2.2816
        43                          0.0971907               2.6447
        44                          0.1086664               2.9570
        45                          0.1173926               3.1944
        46                          0.1347352               3.6663
       ...                                ...                  ...
        62                          0.5657041              15.3936
      -------------------------------------------------------------
                  HL-Gap            0.1684401 Eh            4.5835 eV
             Fermi-level           -0.2721021 Eh           -7.4043 eV

     #   Z          covCN         q      C6AA      α(0)
     1   6 C        3.804    -0.066    21.760     6.641
     2   6 C        3.806    -0.070    21.841     6.653
     3   6 C        3.783     0.031    20.065     6.381
     4   6 C        3.608     0.330    16.131     5.802
     5   8 O        1.656    -0.461    22.065     6.341
     6   8 O        1.658    -0.443    21.697     6.288
     7   7 N        2.632    -0.340    28.768     7.966
     8   6 C        3.756     0.004    20.561     6.465
     9   7 N        2.744    -0.191    25.145     7.448
    10   6 C        2.746     0.238    23.021     7.856
    11   7 N        2.642    -0.310    27.980     7.856
    12   7 N        1.787    -0.443    32.573     8.453
    13   1 H        0.924     0.038     2.470     2.458
    14   1 H        0.924     0.039     2.457     2.451
    15   1 H        0.924     0.030     2.581     2.512
    16   1 H        0.924     0.046     2.367     2.406
    17   1 H        0.924     0.039     2.458     2.452
    18   1 H        0.805     0.322     0.657     1.274
    19   1 H        0.860     0.153     1.381     1.841
    20   1 H        0.860     0.142     1.459     1.892
    21   1 H        0.925     0.042     2.425     2.435
    22   1 H        0.924     0.064     2.151     2.294
    23   1 H        0.860     0.169     1.281     1.773
    24   1 H        0.860     0.168     1.287     1.777
    25   1 H        0.860     0.131     1.541     1.945
    26   1 H        0.804     0.337     0.620     1.237

 Mol. C6AA /au·bohr⁶  :       5792.737267
 Mol. C8AA /au·bohr⁸  :     123728.867913
 Mol. α(0) /au        :        112.896465


Wiberg/Mayer (AO) data.
largest (>0.10) Wiberg bond orders for each atom

 ---------------------------------------------------------------------------
     #   Z sym  total        # sym  WBO       # sym  WBO       # sym  WBO
 ---------------------------------------------------------------------------
     1   6 C    3.998 --     2 C    1.009     8 C    0.997    13 H    0.977
                            14 H    0.975
     2   6 C    3.997 --     1 C    1.009     3 C    0.981    15 H    0.976
                            16 H    0.975
     3   6 C    3.987 --     7 N    1.026     2 C    0.981    17 H    0.961
                             4 C    0.935
     4   6 C    3.929 --     5 O    1.030     6 O    0.999     3 C    0.935
                             9 N    0.907
     5   8 O    1.981 --     4 C    1.030    26 H    0.800
     6   8 O    1.991 --     4 C    0.999    18 H    0.875
     7   7 N    3.011 --     3 C    1.026    20 H    0.964    19 H    0.960
     8   6 C    3.973 --     1 C    0.997     9 N    0.982    22 H    0.968
                            21 H    0.967
     9   7 N    3.337 --    10 C    1.151     8 C    0.982     4 C    0.907
                            12 N    0.109
    10   6 C    3.963 --    12 N    1.638     9 N    1.151    11 N    1.129
    11   7 N    3.228 --    10 C    1.129    23 H    0.951    24 H    0.944
                            12 N    0.136
    12   7 N    2.979 --    10 C    1.638    25 H    0.950    11 N    0.136
                             9 N    0.109
    13   1 H    0.999 --     1 C    0.977
    14   1 H    0.998 --     1 C    0.975
    15   1 H    0.999 --     2 C    0.976
    16   1 H    0.998 --     2 C    0.975
    17   1 H    0.998 --     3 C    0.961
    18   1 H    0.896 --     6 O    0.875
    19   1 H    0.977 --     7 N    0.960
    20   1 H    0.980 --     7 N    0.964
    21   1 H    0.998 --     8 C    0.967
    22   1 H    0.996 --     8 C    0.968
    23   1 H    0.971 --    11 N    0.951
    24   1 H    0.972 --    11 N    0.944
    25   1 H    0.983 --    12 N    0.950
    26   1 H    0.887 --     5 O    0.800
 ---------------------------------------------------------------------------

Topologies differ in total number of bonds
Writing topology from bond orders to xtbtopo.mol

molecular dipole:
                 x           y           z       tot (Debye)
 q only:        0.472       0.915       0.294
   full:        0.965       1.396       0.362       4.411
molecular quadrupole (traceless):
                xx          xy          yy          xz          yz          zz
 q only:        5.818       1.563      -3.682       1.338      -0.590      -2.136
  q+dip:       12.353      -0.219     -10.047       0.362      -2.267      -2.307
   full:       12.393      -0.368      -9.676       0.426      -2.453      -2.717

           -------------------------------------------------
          |                Geometry Summary                 |
           -------------------------------------------------

      molecular mass/u    :      174.2012086
   center of mass at/Å    :        0.0000024      -0.0000045      -0.0000003
  moments of inertia/u·Å² :        0.3734276E+03   0.5655059E+03   0.6951683E+03
rotational constants/cm⁻¹ :        0.4514297E-01   0.2980982E-01   0.2424972E-01

 * 23 selected distances

     #   Z          #   Z                                           value/Å
     1   6 C        2   6 C                                       1.5249141
     2   6 C        3   6 C                                       1.5392076 (max)
     4   6 C        5   8 O                                       1.3717185
     4   6 C        6   8 O                                       1.3913141
     3   6 C        7   7 N                                       1.4487339
     1   6 C        8   6 C                                       1.5291998
     8   6 C        9   7 N                                       1.4555166
     9   7 N       10   6 C                                       1.3755576
    10   6 C       11   7 N                                       1.3854507
    10   6 C       12   7 N                                       1.2784791
     1   6 C       13   1 H                                       1.0927464
     1   6 C       14   1 H                                       1.0912651
     2   6 C       15   1 H                                       1.0931679
     2   6 C       16   1 H                                       1.0928373
     3   6 C       17   1 H                                       1.0968162
     6   8 O       18   1 H                                       0.9655677 (min)
     7   7 N       19   1 H                                       1.0145581
     7   7 N       20   1 H                                       1.0141370
     8   6 C       21   1 H                                       1.0891029
     8   6 C       22   1 H                                       1.0921826
    11   7 N       23   1 H                                       1.0087852
    11   7 N       24   1 H                                       1.0068344
     5   8 O       26   1 H                                       0.9841626

 * 6 distinct bonds (by element types)

   Z      Z             #   av. dist./Å        max./Å        min./Å
   1 H    6 C           7     1.0925883     1.0968162     1.0891029
   6 C    6 C           3     1.5311072     1.5392076     1.5249141
   1 H    7 N           4     1.0110787     1.0145581     1.0068344
   6 C    7 N           5     1.3887476     1.4555166     1.2784791
   1 H    8 O           2     0.9748652     0.9841626     0.9655677
   6 C    8 O           2     1.3815163     1.3913141     1.3717185

           -------------------------------------------------
          |               Frequency Printout                |
           -------------------------------------------------
 projected vibrational frequencies (cm⁻¹)
eigval :       -0.00    -0.00    -0.00     0.00     0.00     0.00
eigval :       57.37    90.67   106.59   213.22   226.51   252.39
eigval :      258.96   272.84   313.25   329.36   361.96   387.66
eigval :      399.25   418.45   436.58   490.77   524.77   545.10
eigval :      572.69   592.68   602.04   626.11   677.11   743.06
eigval :      750.53   875.16   896.47   898.44   935.63   955.80
eigval :      999.99  1028.58  1033.87  1052.01  1085.65  1101.18
eigval :     1113.17  1115.75  1146.80  1157.30  1183.19  1202.28
eigval :     1208.07  1244.84  1273.54  1294.40  1317.37  1329.41
eigval :     1336.26  1338.19  1354.78  1400.88  1458.21  1473.50
eigval :     1484.06  1499.74  1551.99  1674.33  2925.29  2956.20
eigval :     2967.86  2977.04  2982.92  2986.37  2999.32  3119.14
eigval :     3385.94  3398.60  3418.68  3452.27  3504.17  3523.92
 reduced masses (amu)
   1: 11.24   2: 11.84   3: 12.06   4: 12.48   5: 12.30   6: 13.03   7: 11.47   8: 12.25
   9: 10.25  10:  8.51  11:  5.37  12: 10.50  13: 10.94  14: 10.11  15:  3.94  16:  6.39
  17: 10.61  18: 11.09  19: 10.15  20:  8.99  21:  9.82  22: 10.21  23:  8.89  24:  9.59
  25:  8.54  26:  5.91  27:  7.33  28:  8.83  29:  9.10  30:  9.76  31:  4.26  32:  7.77
  33:  7.74  34:  6.51  35:  8.91  36:  4.83  37:  8.29  38:  6.98  39:  5.99  40:  7.43
  41:  5.49  42:  7.50  43:  8.02  44:  8.53  45:  9.21  46:  7.03  47:  6.82  48:  5.79
  49:  7.01  50:  4.60  51:  5.20  52:  3.55  53:  3.94  54:  5.62  55:  4.91  56:  5.02
  57:  5.64  58:  9.31  59:  2.47  60:  1.93  61:  2.04  62:  3.61  63:  2.11  64: 12.10
  65:  1.73  66:  1.85  67:  1.81  68:  1.72  69:  1.60  70:  1.79  71:  1.63  72:  1.88
  73:  1.50  74:  1.87  75:  2.08  76:  1.48  77:  2.14  78:  1.87
 IR intensities (km·mol⁻¹)
   1:  0.47   2:  0.20   3:  0.89   4:  0.51   5:  0.16   6:  0.70   7:  5.14   8:  3.97
   9:  0.94  10: 30.33  11: 28.93  12:  0.66  13: 21.07  14:  9.87  15: 85.69  16: 15.67
  17: 10.94  18:  4.77  19:  1.62  20: 12.27  21: 27.82  22: 13.61  23: 22.71  24: 46.68
  25: 39.68  26:177.60  27: 48.98  28: 75.75  29: 99.19  30:  2.53  31:121.34  32: 24.60
  33: 76.18  34: 61.93  35: 22.89  36:127.30  37:111.01  38:  6.65  39: 26.61  40: 74.00
  41: 27.72  42: 38.49  43: 51.51  44: 42.22  45: 33.91  46: 10.51  47: 38.97  48: 12.49
  49:108.98  50: 47.99  51: 67.35  52: 21.56  53: 53.58  54:246.66  55: 17.33  56: 19.39
  57: 61.34  58:301.96  59: 18.10  60:  1.33  61:  1.51  62:171.44  63: 33.80  64:402.97
  65: 26.28  66: 50.37  67:  8.44  68:  5.42  69: 49.24  70: 70.87  71: 50.69  72:330.05
  73: 14.61  74: 20.62  75:  3.39  76:  1.67  77:  0.74  78: 43.16
 Raman intensities (amu)
   1:  0.00   2:  0.00   3:  0.00   4:  0.00   5:  0.00   6:  0.00   7:  0.00   8:  0.00
   9:  0.00  10:  0.00  11:  0.00  12:  0.00  13:  0.00  14:  0.00  15:  0.00  16:  0.00
  17:  0.00  18:  0.00  19:  0.00  20:  0.00  21:  0.00  22:  0.00  23:  0.00  24:  0.00
  25:  0.00  26:  0.00  27:  0.00  28:  0.00  29:  0.00  30:  0.00  31:  0.00  32:  0.00
  33:  0.00  34:  0.00  35:  0.00  36:  0.00  37:  0.00  38:  0.00  39:  0.00  40:  0.00
  41:  0.00  42:  0.00  43:  0.00  44:  0.00  45:  0.00  46:  0.00  47:  0.00  48:  0.00
  49:  0.00  50:  0.00  51:  0.00  52:  0.00  53:  0.00  54:  0.00  55:  0.00  56:  0.00
  57:  0.00  58:  0.00  59:  0.00  60:  0.00  61:  0.00  62:  0.00  63:  0.00  64:  0.00
  65:  0.00  66:  0.00  67:  0.00  68:  0.00  69:  0.00  70:  0.00  71:  0.00  72:  0.00
  73:  0.00  74:  0.00  75:  0.00  76:  0.00  77:  0.00  78:  0.00
 output can be read by thermo (or use thermo option).
 writing <g98.out> molden fake output.
 recommended (thermochemical) frequency scaling factor: 1.0
           -------------------------------------------------
          |             Thermodynamic Functions             |
           -------------------------------------------------

Molecule has no symmetry elements
It seems to be the C1 point group
c1  symmetry found (for desy threshold:  0.10E+00) used in thermo

          ...................................................
          :                      SETUP                      :
          :.................................................:
          :  # frequencies                          72      :
          :  # imaginary freq.                       0      :
          :  linear?                             false      :
          :  only rotor calc.                    false      :
          :  symmetry                               c1      :
          :  rotational number                       1      :
          :  scaling factor                  1.0000000      :
          :  rotor cutoff                   50.0000000 cm⁻¹ :
          :  imag. cutoff                  -20.0000000 cm⁻¹ :
          :.................................................:

    mode    ω/cm⁻¹     T·S(HO)/kcal·mol⁻¹    T·S(FR)/kcal·mol⁻¹   T·S(vib)
   ------------------------------------------------------------------------
       1     57.37    -1.35534 ( 63.41%)    -1.01568 ( 36.59%)    -1.23104
       2     90.67    -1.08695 ( 91.53%)    -0.88014 (  8.47%)    -1.06944
       3    106.59    -0.99284 ( 95.38%)    -0.83221 (  4.62%)    -0.98543
       4    213.22    -0.60105 ( 99.70%)    -0.62687 (  0.30%)    -0.60113
       5    226.51    -0.56840 ( 99.76%)    -0.60896 (  0.24%)    -0.56850
       6    252.39    -0.51098 ( 99.85%)    -0.57691 (  0.15%)    -0.51108
       7    258.96    -0.49754 ( 99.86%)    -0.56930 (  0.14%)    -0.49764
       8    272.84    -0.47053 ( 99.89%)    -0.55384 (  0.11%)    -0.47063
   ------------------------------------------------------------------------

   temp. (K)  partition function   enthalpy   heat capacity  entropy
                                   cal/mol     cal/K/mol   cal/K/mol   J/K/mol
 298.15  VIB  0.136E+04             5894.558     42.652     33.604
         ROT  0.926E+06              888.752      2.981     30.282
         INT  0.125E+10             6783.310     45.633     63.886
         TR   0.222E+28             1481.254      4.968     41.354
         TOT                        8264.5642    50.6013   105.2402   440.3250

       T/K    H(0)-H(T)+PV         H(T)/Eh          T*S/Eh         G(T)/Eh
   ------------------------------------------------------------------------
    298.15    0.131704E-01    0.229297E+00    0.500030E-01    0.179294E+00
   ------------------------------------------------------------------------

         :::::::::::::::::::::::::::::::::::::::::::::::::::::
         ::                  THERMODYNAMIC                  ::
         :::::::::::::::::::::::::::::::::::::::::::::::::::::
         :: total free energy         -39.647650214232 Eh   ::
         ::.................................................::
         :: total energy              -39.826943992127 Eh   ::
         :: zero point energy           0.216126368392 Eh   ::
         :: G(RRHO) w/o ZPVE           -0.036832590496 Eh   ::
         :: G(RRHO) contrib.            0.179293777895 Eh   ::
         :::::::::::::::::::::::::::::::::::::::::::::::::::::

optimized geometry written to: xtbopt.xyz


           -------------------------------------------------
          | TOTAL ENERGY              -39.826943992127 Eh   |
          | TOTAL ENTHALPY            -39.597647202366 Eh   |
          | TOTAL FREE ENERGY         -39.647650214232 Eh   |
          | GRADIENT NORM               0.000076259521 Eh/α |
          | HOMO-LUMO GAP               4.583489549740 eV   |
           -------------------------------------------------

------------------------------------------------------------------------
 * finished run on 2025/07/30 at 12:34:55.647     
------------------------------------------------------------------------
 total:
 * wall-time:     0 d,  0 h,  0 min,  1.300 sec
 *  cpu-time:     0 d,  0 h,  0 min,  9.308 sec
 * ratio c/w:     7.159 speedup
 SCF:
 * wall-time:     0 d,  0 h,  0 min,  0.030 sec
 *  cpu-time:     0 d,  0 h,  0 min,  0.218 sec
 * ratio c/w:     7.369 speedup
 ANC optimizer:
 * wall-time:     0 d,  0 h,  0 min,  0.091 sec
 *  cpu-time:     0 d,  0 h,  0 min,  0.659 sec
 * ratio c/w:     7.275 speedup
 analytical hessian:
 * wall-time:     0 d,  0 h,  0 min,  1.160 sec
 *  cpu-time:     0 d,  0 h,  0 min,  8.293 sec
 * ratio c/w:     7.150 speedup

