 Entering Gaussian System
 *********************************************
 Gaussian 98:
 frequency output generated by the xtb code
 *********************************************
                         Standard orientation:
 --------------------------------------------------------------------
  Center     Atomic     Atomic              Coordinates (Angstroms)
  Number     Number      Type              X           Y           Z
 --------------------------------------------------------------------
    1          6             0       -1.220804   -1.298496   -0.532057
    2          6             0       -0.722652   -0.184880    0.393948
    3          6             0        0.720302    0.146208    0.025855
    4          8             0        1.070890    1.164847   -0.509123
    5          8             0        1.572414   -0.828648    0.360120
    6          7             0       -1.600039    0.963465    0.299835
    7          1             0       -0.616730   -2.192250   -0.405917
    8          1             0       -2.255486   -1.521995   -0.290133
    9          1             0       -1.167923   -0.974410   -1.569305
   10          1             0       -0.731807   -0.546597    1.428433
   11          1             0        2.477281   -0.594517    0.097386
   12          1             0       -1.284355    1.701762    0.920006
   13          1             0       -1.569050    1.336821   -0.644270
 --------------------------------------------------------------------
     1 basis functions        1 primitive gaussians
     1 alpha electrons        1 beta electrons
 
 Harmonic frequencies (cm**-1), IR intensities (km*mol⁻¹),
 Raman scattering activities (A**4/amu), Raman depolarization ratios,
 reduced masses (AMU), force constants (mDyne/A) and normal coordinates:
                      1                      2                      3
                        a                      a                      a 
 Frequencies --    43.7428               199.6897               202.3172
 Red. masses --    12.9089                 3.9485                 3.4089
 Frc consts  --     0.0000                 0.0000                 0.0000
 IR Inten    --     2.9044                 3.9073                22.6819
 Raman Activ --     0.0000                 0.0000                 0.0000
 Depolar     --     0.0000                 0.0000                 0.0000
 Atom AN      X      Y      Z        X      Y      Z        X      Y      Z
   1   6     0.03  -0.19   0.32     0.32   0.06   0.00    -0.23   0.01  -0.07
   2   6    -0.01   0.08   0.00    -0.02   0.08   0.18     0.02  -0.12  -0.08
   3   6     0.01   0.05   0.03    -0.04   0.03   0.09     0.02  -0.05  -0.04
   4   8     0.11   0.26   0.49    -0.09  -0.07  -0.13    -0.09   0.06   0.09
   5   8    -0.09  -0.20  -0.47    -0.11  -0.10  -0.15     0.18   0.12   0.06
   6   7    -0.04   0.04  -0.33    -0.10   0.01   0.01     0.13  -0.02   0.12
   7   1     0.02  -0.04   0.16    -0.14  -0.09   0.33    -0.31  -0.14   0.18
   8   1     0.01  -0.05   0.11    -0.04   0.27  -0.34    -0.17   0.28  -0.20
   9   1     0.00  -0.14   0.07     0.54  -0.12  -0.02     0.22  -0.12  -0.04
  10   1    -0.01   0.11   0.03    -0.05   0.02   0.05     0.02  -0.04  -0.02
  11   1    -0.02  -0.04  -0.10    -0.04  -0.07  -0.12     0.04   0.09   0.06
  12   1     0.01   0.07  -0.17    -0.19  -0.06   0.16     0.36   0.14  -0.31
  13   1    -0.04  -0.08  -0.13     0.17   0.11   0.05    -0.34  -0.26  -0.08
                      4                      5                      6
                        a                      a                      a 
 Frequencies --   213.9759               275.9015               356.3069
 Red. masses --     8.8151                 9.5829                10.1288
 Frc consts  --     0.0000                 0.0000                 0.0000
 IR Inten    --    17.9274                13.3516                 8.6222
 Raman Activ --     0.0000                 0.0000                 0.0000
 Depolar     --     0.0000                 0.0000                 0.0000
 Atom AN      X      Y      Z        X      Y      Z        X      Y      Z
   1   6     0.31   0.08  -0.04    -0.30  -0.11   0.09    -0.16   0.38   0.03
   2   6     0.02   0.16   0.02     0.08   0.01  -0.23     0.05   0.06   0.26
   3   6     0.01   0.11  -0.05     0.11   0.12  -0.21     0.13  -0.05   0.22
   4   8     0.34  -0.04  -0.15     0.50   0.15   0.00     0.06  -0.16  -0.02
   5   8    -0.31  -0.14   0.02    -0.05   0.08   0.08     0.37  -0.02  -0.10
   6   7    -0.33  -0.09   0.27    -0.25  -0.23   0.09    -0.32  -0.27  -0.25
   7   1     0.17   0.08  -0.03    -0.22  -0.11   0.14    -0.11   0.05  -0.13
   8   1     0.11  -0.08  -0.01    -0.12   0.16   0.04    -0.05   0.17   0.03
   9   1     0.06   0.05  -0.01    -0.03  -0.16  -0.01    -0.07   0.24   0.05
  10   1     0.05   0.03   0.00     0.11  -0.00  -0.07    -0.03   0.03   0.08
  11   1    -0.06  -0.12   0.00     0.02   0.01   0.12     0.05   0.02  -0.16
  12   1     0.09   0.12  -0.20    -0.26  -0.15   0.22    -0.26   0.03  -0.10
  13   1    -0.47  -0.22  -0.02     0.02   0.13   0.10    -0.06  -0.16  -0.10
                      7                      8                      9
                        a                      a                      a 
 Frequencies --   472.4606               591.3997               625.5894
 Red. masses --    11.3956                 7.4979                 8.2271
 Frc consts  --     0.0000                 0.0000                 0.0000
 IR Inten    --    17.9818                63.9033                57.5616
 Raman Activ --     0.0000                 0.0000                 0.0000
 Depolar     --     0.0000                 0.0000                 0.0000
 Atom AN      X      Y      Z        X      Y      Z        X      Y      Z
   1   6     0.02  -0.15  -0.04    -0.12  -0.20  -0.10    -0.00  -0.02  -0.03
   2   6    -0.33   0.15  -0.16    -0.14  -0.17   0.08     0.14   0.17  -0.31
   3   6    -0.06  -0.20   0.04    -0.09   0.25   0.33     0.26  -0.02   0.06
   4   8     0.16  -0.28   0.10     0.32  -0.07  -0.07    -0.34   0.16   0.01
   5   8     0.45   0.08  -0.11    -0.09   0.29   0.00     0.18  -0.24   0.27
   6   7    -0.29   0.34   0.14     0.10  -0.00   0.00    -0.11   0.07   0.04
   7   1     0.11   0.04   0.11    -0.04  -0.06  -0.04    -0.01  -0.00   0.07
   8   1     0.02  -0.16  -0.05    -0.03  -0.05  -0.02     0.02   0.04   0.11
   9   1     0.03  -0.14  -0.04    -0.04  -0.05  -0.03    -0.08  -0.14  -0.05
  10   1    -0.14   0.05  -0.04    -0.10  -0.10   0.00     0.01   0.03  -0.09
  11   1     0.05   0.24  -0.05    -0.14  -0.15  -0.62    -0.00  -0.44  -0.41
  12   1    -0.01   0.04   0.07     0.13  -0.01  -0.04    -0.05  -0.01   0.05
  13   1    -0.16   0.16   0.06     0.09  -0.04  -0.01    -0.17   0.10   0.04
                     10                     11                     12
                        a                      a                      a 
 Frequencies --   714.4419               802.9823               949.7002
 Red. masses --    10.0787                 9.4443                 7.0934
 Frc consts  --     0.0000                 0.0000                 0.0000
 IR Inten    --   107.0213                36.5281                16.0120
 Raman Activ --     0.0000                 0.0000                 0.0000
 Depolar     --     0.0000                 0.0000                 0.0000
 Atom AN      X      Y      Z        X      Y      Z        X      Y      Z
   1   6     0.08   0.14   0.10    -0.17  -0.18  -0.04    -0.17   0.35   0.08
   2   6    -0.00   0.00   0.08    -0.33  -0.15   0.34    -0.31   0.04  -0.10
   3   6    -0.23  -0.35  -0.61     0.27   0.07  -0.24     0.03   0.04   0.02
   4   8     0.07  -0.03   0.28     0.07   0.34  -0.12     0.03   0.05  -0.04
   5   8    -0.00   0.21   0.22     0.17  -0.17   0.09     0.03  -0.00  -0.01
   6   7     0.02  -0.05  -0.03    -0.13   0.14   0.01     0.36  -0.33  -0.01
   7   1     0.04   0.05  -0.01     0.04  -0.00  -0.08     0.25   0.34   0.37
   8   1     0.01  -0.01  -0.07    -0.07  -0.22  -0.26     0.01  -0.24  -0.07
   9   1     0.09   0.12   0.05     0.11   0.13   0.05     0.07  -0.17  -0.05
  10   1     0.14   0.07   0.04    -0.06   0.03   0.11    -0.16  -0.09  -0.06
  11   1    -0.10  -0.07  -0.40     0.13  -0.29   0.10     0.02  -0.06   0.01
  12   1    -0.04   0.00  -0.01     0.03   0.06  -0.05    -0.11  -0.08   0.07
  13   1     0.04  -0.03  -0.01     0.13  -0.05  -0.03    -0.11  -0.09  -0.00
                     13                     14                     15
                        a                      a                      a 
 Frequencies --   968.5717               994.6022              1067.3041
 Red. masses --     4.6391                 4.4433                 4.3818
 Frc consts  --     0.0000                 0.0000                 0.0000
 IR Inten    --   118.4128                 4.5535                61.8419
 Raman Activ --     0.0000                 0.0000                 0.0000
 Depolar     --     0.0000                 0.0000                 0.0000
 Atom AN      X      Y      Z        X      Y      Z        X      Y      Z
   1   6     0.15   0.28   0.07    -0.09  -0.08  -0.34     0.30   0.04  -0.04
   2   6    -0.11  -0.14  -0.08     0.18   0.16   0.28    -0.24  -0.17   0.19
   3   6     0.01  -0.01  -0.06    -0.04  -0.04  -0.08    -0.02  -0.04  -0.18
   4   8     0.03   0.04  -0.02    -0.01  -0.00   0.03     0.06   0.08  -0.01
   5   8     0.06  -0.04   0.01    -0.01  -0.01   0.02     0.03   0.05  -0.00
   6   7    -0.38  -0.04   0.04    -0.00   0.13   0.12     0.16   0.07  -0.06
   7   1     0.02   0.08   0.17     0.03   0.05   0.16    -0.16  -0.15  -0.04
   8   1     0.07   0.14   0.21     0.03  -0.06   0.11     0.08   0.31   0.32
   9   1    -0.09  -0.14  -0.05    -0.13  -0.37  -0.20    -0.19  -0.10  -0.05
  10   1    -0.05  -0.23  -0.09     0.12  -0.27  -0.04    -0.47  -0.16  -0.00
  11   1     0.02  -0.04   0.02    -0.01   0.04   0.00     0.06  -0.14   0.07
  12   1     0.47  -0.08  -0.15    -0.35   0.30  -0.12    -0.16  -0.01   0.10
  13   1     0.49  -0.03  -0.01     0.21  -0.29  -0.09    -0.29   0.05   0.01
                     16                     17                     18
                        a                      a                      a 
 Frequencies --  1120.0543              1154.7510              1205.0361
 Red. masses --    10.7108                 6.9865                 6.2936
 Frc consts  --     0.0000                 0.0000                 0.0000
 IR Inten    --   318.4574                 7.1719                50.6288
 Raman Activ --     0.0000                 0.0000                 0.0000
 Depolar     --     0.0000                 0.0000                 0.0000
 Atom AN      X      Y      Z        X      Y      Z        X      Y      Z
   1   6     0.06  -0.03  -0.01    -0.03  -0.13  -0.28     0.12  -0.05  -0.01
   2   6    -0.14   0.08   0.01    -0.05   0.49   0.22    -0.31   0.17  -0.15
   3   6    -0.36   0.23  -0.05     0.09  -0.10  -0.05    -0.38   0.17   0.06
   4   8     0.07   0.25  -0.13    -0.02  -0.00   0.02     0.02  -0.13   0.04
   5   8     0.24  -0.53   0.22    -0.04   0.05  -0.01     0.22   0.06  -0.07
   6   7     0.11  -0.08  -0.00     0.05  -0.33   0.04     0.13  -0.09   0.08
   7   1    -0.04  -0.05  -0.04    -0.06  -0.05  -0.00    -0.06  -0.08  -0.07
   8   1     0.01   0.08   0.05     0.01   0.02   0.06     0.01   0.14   0.06
   9   1    -0.03   0.02   0.00    -0.12  -0.16  -0.12    -0.05   0.05   0.01
  10   1     0.07   0.01   0.00    -0.22   0.46   0.17     0.38   0.11  -0.01
  11   1    -0.16   0.45  -0.19    -0.01   0.02   0.01     0.22  -0.47   0.19
  12   1     0.01  -0.03   0.02     0.29  -0.17  -0.01    -0.07   0.04  -0.01
  13   1     0.01  -0.04  -0.01     0.11   0.03   0.05     0.12  -0.16  -0.03
                     19                     20                     21
                        a                      a                      a 
 Frequencies --  1226.7557              1266.7945              1318.6427
 Red. masses --     6.7427                 6.6939                 4.5201
 Frc consts  --     0.0000                 0.0000                 0.0000
 IR Inten    --     8.4620                24.0851                 4.9656
 Raman Activ --     0.0000                 0.0000                 0.0000
 Depolar     --     0.0000                 0.0000                 0.0000
 Atom AN      X      Y      Z        X      Y      Z        X      Y      Z
   1   6    -0.10   0.13  -0.21     0.14   0.11  -0.10     0.02  -0.05   0.03
   2   6     0.24  -0.32   0.28    -0.40  -0.27  -0.02    -0.17   0.35   0.26
   3   6    -0.30   0.15  -0.01     0.41  -0.13   0.09     0.14  -0.07   0.01
   4   8     0.04  -0.03   0.01    -0.04   0.03  -0.02    -0.03  -0.01   0.01
   5   8     0.12  -0.05   0.00    -0.16   0.03  -0.00    -0.04   0.04  -0.01
   6   7    -0.10   0.11  -0.21     0.04   0.07   0.01     0.02  -0.04  -0.23
   7   1     0.08   0.13   0.20    -0.06  -0.02   0.08    -0.07  -0.08  -0.07
   8   1     0.03  -0.07   0.09     0.05   0.09   0.15    -0.01  -0.04  -0.07
   9   1    -0.02  -0.21  -0.12    -0.10  -0.10  -0.07    -0.04  -0.03  -0.00
  10   1     0.23   0.19   0.17     0.48   0.30   0.14     0.38  -0.56  -0.15
  11   1     0.07  -0.15   0.07    -0.11   0.21  -0.09    -0.01   0.03   0.00
  12   1     0.16  -0.17   0.09    -0.10   0.02   0.04     0.21  -0.24   0.11
  13   1    -0.26   0.28   0.05    -0.02  -0.07  -0.03    -0.22   0.17   0.02
                     22                     23                     24
                        a                      a                      a 
 Frequencies --  1392.3302              1477.9788              1488.6255
 Red. masses --     3.1463                 1.5766                 1.5736
 Frc consts  --     0.0000                 0.0000                 0.0000
 IR Inten    --     3.9256                 3.9389                 6.5713
 Raman Activ --     0.0000                 0.0000                 0.0000
 Depolar     --     0.0000                 0.0000                 0.0000
 Atom AN      X      Y      Z        X      Y      Z        X      Y      Z
   1   6     0.14   0.34   0.23     0.12   0.04  -0.18    -0.17   0.10  -0.09
   2   6     0.04  -0.04  -0.04     0.04   0.02  -0.03    -0.04   0.04  -0.02
   3   6    -0.05   0.04   0.00    -0.02   0.01   0.00     0.00  -0.01  -0.00
   4   8     0.00  -0.01  -0.00     0.00  -0.00   0.00     0.00   0.01  -0.00
   5   8     0.02  -0.02   0.00     0.01  -0.00  -0.00     0.00   0.00  -0.00
   6   7    -0.00   0.01   0.02    -0.00  -0.02   0.01     0.00   0.01   0.00
   7   1    -0.35  -0.25  -0.32    -0.43  -0.21   0.54    -0.16  -0.11  -0.22
   8   1     0.03  -0.42  -0.31     0.12  -0.42   0.06     0.18  -0.27   0.56
   9   1    -0.15  -0.44  -0.13    -0.18   0.44   0.11     0.66  -0.04   0.01
  10   1    -0.04   0.08   0.02    -0.02  -0.02  -0.02    -0.00  -0.02  -0.01
  11   1     0.01  -0.01   0.00     0.00  -0.01   0.01     0.00  -0.00  -0.00
  12   1    -0.02   0.01   0.01    -0.01   0.03  -0.03     0.00  -0.02   0.03
  13   1     0.02  -0.03  -0.01     0.01   0.03   0.01     0.01  -0.04  -0.01
                     25                     26                     27
                        a                      a                      a 
 Frequencies --  1565.6996              1787.3787              2930.4707
 Red. masses --     2.0912                13.3015                 1.7430
 Frc consts  --     0.0000                 0.0000                 0.0000
 IR Inten    --    31.2598               459.2199                24.9222
 Raman Activ --     0.0000                 0.0000                 0.0000
 Depolar     --     0.0000                 0.0000                 0.0000
 Atom AN      X      Y      Z        X      Y      Z        X      Y      Z
   1   6    -0.00  -0.01  -0.01     0.00   0.01   0.00     0.00   0.01  -0.01
   2   6     0.09   0.02  -0.03     0.05   0.01  -0.03    -0.01  -0.08   0.24
   3   6    -0.00   0.02  -0.01    -0.26  -0.66   0.35    -0.00  -0.01   0.01
   4   8    -0.01  -0.02   0.01     0.18   0.50  -0.26     0.00   0.00  -0.00
   5   8     0.00  -0.00   0.00    -0.01   0.06  -0.03     0.00   0.00  -0.00
   6   7    -0.06   0.26  -0.04    -0.01   0.01  -0.00     0.00  -0.00   0.00
   7   1     0.00   0.01   0.05     0.00   0.00   0.00     0.01  -0.01  -0.00
   8   1    -0.01  -0.01  -0.02     0.00  -0.00  -0.01    -0.01  -0.00   0.00
   9   1    -0.04   0.04   0.01    -0.01  -0.01  -0.00    -0.00  -0.02   0.05
  10   1    -0.06   0.04   0.00     0.04   0.01   0.01     0.02   0.32  -0.91
  11   1    -0.00  -0.00   0.00     0.04  -0.09   0.04    -0.00  -0.00   0.00
  12   1     0.09  -0.44   0.48    -0.01  -0.01   0.02     0.00  -0.00  -0.00
  13   1    -0.03  -0.63  -0.25    -0.01  -0.02  -0.01    -0.00  -0.01   0.01
                     28                     29                     30
                        a                      a                      a 
 Frequencies --  3034.6349              3054.2083              3058.4067
 Red. masses --     1.7479                 1.5995                 1.8181
 Frc consts  --     0.0000                 0.0000                 0.0000
 IR Inten    --    23.9686                14.6641                15.8048
 Raman Activ --     0.0000                 0.0000                 0.0000
 Depolar     --     0.0000                 0.0000                 0.0000
 Atom AN      X      Y      Z        X      Y      Z        X      Y      Z
   1   6    -0.03  -0.08   0.24     0.08  -0.21   0.04    -0.27   0.01   0.03
   2   6     0.00  -0.01   0.02     0.00  -0.01   0.01    -0.01  -0.00   0.00
   3   6    -0.00  -0.00   0.00     0.00  -0.00   0.00     0.00   0.00  -0.00
   4   8     0.00   0.00  -0.00     0.00   0.00  -0.00    -0.00  -0.00   0.00
   5   8    -0.00  -0.00  -0.00     0.00   0.00  -0.00     0.00  -0.00  -0.00
   6   7    -0.00  -0.00  -0.00    -0.00   0.00  -0.00     0.00   0.00   0.00
   7   1    -0.00  -0.02   0.03    -0.53   0.76  -0.11     0.11  -0.21   0.04
   8   1     0.06  -0.00   0.02     0.25   0.02  -0.05     0.88   0.19  -0.22
   9   1     0.05   0.30  -0.91     0.01  -0.03   0.01    -0.04  -0.02   0.07
  10   1     0.00   0.02  -0.05    -0.00   0.01  -0.02     0.00   0.00  -0.00
  11   1     0.00   0.00   0.00    -0.00  -0.00   0.00    -0.00  -0.00   0.00
  12   1     0.00   0.00   0.00     0.00  -0.00  -0.00    -0.00  -0.00  -0.00
  13   1    -0.00   0.00   0.00    -0.00  -0.00   0.00    -0.00   0.00  -0.00
                     31                     32                     33
                        a                      a                      a 
 Frequencies --  3387.6764              3414.2449              3432.9608
 Red. masses --     1.5406                 2.0455                 1.8475
 Frc consts  --     0.0000                 0.0000                 0.0000
 IR Inten    --     6.1236                 3.4495                25.9937
 Raman Activ --     0.0000                 0.0000                 0.0000
 Depolar     --     0.0000                 0.0000                 0.0000
 Atom AN      X      Y      Z        X      Y      Z        X      Y      Z
   1   6     0.00  -0.00   0.00     0.00   0.00   0.00     0.00  -0.00  -0.00
   2   6    -0.00  -0.01   0.01     0.00   0.00   0.01     0.00   0.00  -0.00
   3   6    -0.00  -0.00   0.00     0.00  -0.00  -0.00    -0.01   0.01  -0.00
   4   8     0.00   0.00  -0.00     0.00  -0.00   0.00    -0.00  -0.00   0.00
   5   8    -0.00  -0.00   0.00     0.00   0.00  -0.00    -0.22  -0.06   0.07
   6   7    -0.03  -0.17   0.11     0.06   0.10   0.26    -0.00   0.00  -0.00
   7   1    -0.00   0.00  -0.00    -0.00   0.00   0.00    -0.00   0.00   0.00
   8   1     0.00   0.00   0.00    -0.00  -0.00   0.00     0.00   0.00  -0.00
   9   1     0.00  -0.00  -0.00     0.00   0.00  -0.01    -0.00  -0.00   0.00
  10   1     0.00   0.00  -0.01     0.00   0.00  -0.01     0.00   0.00  -0.00
  11   1     0.01   0.00  -0.00    -0.00  -0.00   0.00     0.91   0.22  -0.26
  12   1     0.14   0.36   0.36    -0.24  -0.59  -0.50    -0.00  -0.01  -0.00
  13   1    -0.01   0.28  -0.78     0.01   0.20  -0.46     0.00  -0.00   0.00
