13
 energy: -21.044884176719 gnorm: 0.000077367443 xtb: 6.6.0 (8843059)
C           -1.22079500000000       -1.29850100000000       -0.53206300000000
C           -0.72265200000000       -0.18488400000000        0.39394500000000
C            0.72030100000000        0.14621200000000        0.02585800000000
O            1.07088600000000        1.16485300000000       -0.50911700000000
O            1.57241700000000       -0.82864000000000        0.36012400000000
N           -1.60004500000000        0.96345600000000        0.29983100000000
H           -0.61671700000000       -2.19225200000000       -0.40592300000000
H           -2.25547700000000       -1.52200600000000       -0.29014400000000
H           -1.16791200000000       -0.97441300000000       -1.56931100000000
H           -0.73180900000000       -0.54660300000000        1.42842900000000
H            2.47728400000000       -0.59450400000000        0.09739400000000
H           -1.28436700000000        1.70175400000000        0.92000400000000
H           -1.56905500000000        1.33681400000000       -0.64427300000000
