 Entering Gaussian System
 *********************************************
 Gaussian 98:
 frequency output generated by the xtb code
 *********************************************
                         Standard orientation:
 --------------------------------------------------------------------
  Center     Atomic     Atomic              Coordinates (Angstroms)
  Number     Number      Type              X           Y           Z
 --------------------------------------------------------------------
    1          6             0       -0.968770    2.225471   -0.357119
    2          6             0       -2.001522    1.282207    0.233931
    3          6             0       -1.785767   -0.087642   -0.390137
    4          6             0       -0.370011   -0.636138   -0.068605
    5          8             0       -0.145742   -1.642222   -0.984910
    6          8             0       -0.379482   -1.125242    1.242004
    7          7             0       -2.818946   -1.010935    0.024430
    8          6             0        0.432493    1.791503    0.053234
    9          7             0        0.699352    0.380838   -0.187991
   10          6             0        1.969431   -0.089546    0.036597
   11          7             0        2.996094    0.826569    0.090607
   12          7             0        2.168839   -1.357175    0.121777
   13          1             0       -1.053575    2.215740   -1.444937
   14          1             0       -1.123602    3.248158   -0.009269
   15          1             0       -3.015453    1.613068    0.012877
   16          1             0       -1.885059    1.210710    1.316626
   17          1             0       -1.835413   -0.004199   -1.481413
   18          1             0        0.447997   -1.618592    1.356170
   19          1             0       -2.670234   -1.900610   -0.441067
   20          1             0       -2.727281   -1.178290    1.022445
   21          1             0        1.152168    2.375183   -0.529576
   22          1             0        0.567427    2.016374    1.123659
   23          1             0        3.892014    0.449218    0.354721
   24          1             0        2.825838    1.765428    0.402890
   25          1             0        3.142845   -1.613311    0.232874
   26          1             0        0.762152   -1.975244   -0.811338
 --------------------------------------------------------------------
     1 basis functions        1 primitive gaussians
     1 alpha electrons        1 beta electrons
 
 Harmonic frequencies (cm**-1), IR intensities (km*mol⁻¹),
 Raman scattering activities (A**4/amu), Raman depolarization ratios,
 reduced masses (AMU), force constants (mDyne/A) and normal coordinates:
                      1                      2                      3
                        a                      a                      a 
 Frequencies --    50.8151                73.1113               111.3127
 Red. masses --    11.5957                12.0961                 9.1050
 Frc consts  --     0.0000                 0.0000                 0.0000
 IR Inten    --     1.6566                 7.4740                 0.4359
 Raman Activ --     0.0000                 0.0000                 0.0000
 Depolar     --     0.0000                 0.0000                 0.0000
 Atom AN      X      Y      Z        X      Y      Z        X      Y      Z
   1   6    -0.02   0.04   0.28    -0.06   0.02   0.05    -0.08   0.03   0.13
   2   6    -0.05  -0.07   0.05     0.06  -0.04   0.16     0.15  -0.09   0.35
   3   6     0.05   0.03  -0.12    -0.01   0.01   0.04     0.02   0.04   0.02
   4   6     0.00   0.03   0.06     0.01   0.00  -0.07    -0.01  -0.02  -0.03
   5   8     0.02  -0.15   0.27     0.07   0.17  -0.28    -0.07  -0.15   0.11
   6   8    -0.10   0.28   0.16     0.02  -0.23  -0.19     0.02   0.16   0.04
   7   7     0.01  -0.07  -0.45     0.01  -0.02   0.04    -0.01  -0.02  -0.24
   8   6    -0.02  -0.04   0.22     0.02   0.08  -0.17     0.10   0.03  -0.46
   9   7     0.01   0.01  -0.07    -0.01   0.04   0.04    -0.01  -0.04  -0.19
  10   6     0.03  -0.00  -0.10    -0.03   0.01   0.13    -0.03  -0.01  -0.00
  11   7     0.08  -0.06  -0.43     0.06  -0.08  -0.30    -0.10   0.05   0.31
  12   7    -0.01   0.01   0.13    -0.17   0.02   0.63     0.01  -0.01  -0.07
  13   1     0.00   0.08   0.08    -0.07   0.02   0.02    -0.14   0.06   0.05
  14   1    -0.01  -0.01   0.14    -0.01   0.00   0.03     0.01  -0.01   0.10
  15   1    -0.01  -0.02   0.00     0.00  -0.01   0.10     0.02  -0.02   0.22
  16   1    -0.04  -0.07   0.02     0.07  -0.03   0.04     0.15  -0.08   0.08
  17   1     0.07   0.05  -0.03    -0.02   0.03   0.01     0.01   0.08   0.01
  18   1    -0.03   0.07   0.08     0.05   0.00  -0.06    -0.01   0.02   0.02
  19   1     0.04   0.00  -0.15    -0.01   0.01  -0.01    -0.00   0.02  -0.12
  20   1    -0.04  -0.05  -0.12     0.02  -0.03   0.00    -0.01  -0.07  -0.07
  21   1    -0.01   0.03   0.10    -0.03  -0.00  -0.12    -0.03  -0.05  -0.27
  22   1    -0.01  -0.07   0.08     0.07   0.07  -0.07     0.17   0.09  -0.17
  23   1     0.03  -0.01  -0.12     0.01  -0.00  -0.02    -0.03   0.03   0.13
  24   1     0.05   0.02  -0.20     0.04   0.04  -0.25    -0.07   0.01   0.08
  25   1    -0.00  -0.00   0.01    -0.05  -0.01   0.18    -0.00   0.01   0.04
  26   1     0.00  -0.03   0.09    -0.01  -0.01  -0.03    -0.01  -0.02   0.02
                      4                      5                      6
                        a                      a                      a 
 Frequencies --   148.5136               228.8542               259.2176
 Red. masses --    11.8694                11.7526                12.2083
 Frc consts  --     0.0000                 0.0000                 0.0000
 IR Inten    --     3.3979                 6.2986                 5.9166
 Raman Activ --     0.0000                 0.0000                 0.0000
 Depolar     --     0.0000                 0.0000                 0.0000
 Atom AN      X      Y      Z        X      Y      Z        X      Y      Z
   1   6    -0.04   0.00   0.10     0.10   0.05   0.14     0.03   0.01   0.18
   2   6    -0.09  -0.02  -0.04     0.09  -0.00  -0.03     0.04  -0.12  -0.02
   3   6    -0.04  -0.02  -0.03     0.00  -0.01  -0.06    -0.08  -0.06  -0.18
   4   6     0.04   0.09  -0.18    -0.01  -0.17  -0.11    -0.04   0.04  -0.20
   5   8    -0.11  -0.04  -0.09     0.02  -0.32  -0.00     0.28  -0.00  -0.05
   6   8     0.24   0.36  -0.11     0.03  -0.13  -0.11    -0.60   0.24  -0.13
   7   7     0.15  -0.13   0.22    -0.27   0.38   0.11     0.13  -0.09   0.32
   8   6    -0.06  -0.05   0.13     0.02  -0.19   0.09     0.11   0.01  -0.05
   9   7     0.05   0.07  -0.50    -0.03  -0.15  -0.28     0.03  -0.02   0.07
  10   6    -0.02  -0.02  -0.04     0.03   0.06  -0.02     0.02  -0.03   0.00
  11   7     0.05  -0.18   0.27    -0.15   0.30  -0.03     0.01   0.01  -0.04
  12   7    -0.17  -0.04   0.14     0.24   0.13   0.20     0.08  -0.03  -0.04
  13   1     0.01   0.03   0.03     0.03   0.08   0.04    -0.01   0.08   0.05
  14   1    -0.01  -0.01   0.05     0.05  -0.00   0.11     0.00  -0.02   0.13
  15   1    -0.02  -0.01  -0.04     0.03   0.00  -0.01     0.01  -0.00   0.03
  16   1    -0.06  -0.01  -0.01     0.01  -0.03  -0.01     0.02  -0.10  -0.01
  17   1    -0.06  -0.02  -0.01    -0.01  -0.01  -0.02    -0.10  -0.04  -0.05
  18   1     0.07   0.09  -0.04     0.02  -0.01  -0.02    -0.19   0.04   0.09
  19   1     0.05  -0.04   0.07    -0.18   0.07   0.06     0.05  -0.07   0.17
  20   1     0.10  -0.01   0.06    -0.08   0.13   0.03     0.10   0.09   0.10
  21   1    -0.01   0.08   0.14     0.02  -0.03   0.08     0.00  -0.02  -0.07
  22   1    -0.07  -0.14   0.07    -0.01  -0.14   0.05     0.09   0.03  -0.03
  23   1    -0.02  -0.04   0.18    -0.02   0.12  -0.01     0.01  -0.00  -0.04
  24   1     0.02   0.02  -0.14    -0.08   0.06   0.04    -0.00  -0.02   0.06
  25   1    -0.06  -0.03   0.11     0.07   0.08   0.10     0.03   0.00  -0.02
  26   1    -0.04  -0.03  -0.02     0.01  -0.06   0.00     0.08   0.04   0.05
                      7                      8                      9
                        a                      a                      a 
 Frequencies --   287.6531               296.1347               317.4296
 Red. masses --     6.6135                 7.4187                 2.5417
 Frc consts  --     0.0000                 0.0000                 0.0000
 IR Inten    --    10.8631                16.1847                44.5580
 Raman Activ --     0.0000                 0.0000                 0.0000
 Depolar     --     0.0000                 0.0000                 0.0000
 Atom AN      X      Y      Z        X      Y      Z        X      Y      Z
   1   6    -0.09   0.27   0.27     0.14   0.08   0.04     0.02  -0.11  -0.08
   2   6    -0.20   0.05  -0.29     0.01   0.12  -0.06     0.10  -0.06   0.15
   3   6     0.11  -0.00  -0.05     0.05   0.08   0.01    -0.01   0.01   0.02
   4   6     0.04  -0.05   0.09    -0.02   0.03  -0.01    -0.00   0.02  -0.01
   5   8     0.00  -0.05   0.07    -0.28  -0.03  -0.03    -0.07   0.05  -0.06
   6   8     0.16  -0.21   0.05     0.04  -0.00  -0.02     0.02   0.05  -0.02
   7   7     0.11   0.03   0.00     0.32  -0.23   0.01    -0.02  -0.06  -0.20
   8   6     0.02   0.06  -0.19     0.09  -0.06  -0.01    -0.01  -0.02   0.06
   9   7    -0.04  -0.01   0.06    -0.03  -0.08  -0.05     0.01   0.01  -0.05
  10   6    -0.03  -0.03  -0.01    -0.06  -0.04   0.04    -0.00   0.01  -0.00
  11   7    -0.02  -0.08   0.05    -0.21   0.23  -0.17    -0.01   0.04  -0.03
  12   7    -0.05  -0.04  -0.07    -0.08  -0.03   0.18    -0.04   0.01   0.04
  13   1    -0.07   0.29   0.08     0.04   0.06   0.01     0.01  -0.11  -0.02
  14   1    -0.00   0.02   0.28     0.06   0.02   0.05    -0.00  -0.01  -0.09
  15   1    -0.04  -0.01  -0.24     0.02   0.05  -0.06     0.02  -0.00   0.13
  16   1    -0.23   0.03  -0.06    -0.04   0.05  -0.01     0.12  -0.03   0.03
  17   1     0.08  -0.06  -0.02     0.01   0.02   0.00     0.01   0.01   0.00
  18   1     0.05  -0.05  -0.03     0.01  -0.01  -0.03     0.01   0.02  -0.00
  19   1     0.18  -0.08   0.21     0.14  -0.02  -0.06     0.41  -0.19   0.42
  20   1    -0.12   0.22   0.05     0.17  -0.12  -0.01    -0.45   0.45   0.07
  21   1    -0.04  -0.03  -0.17     0.05  -0.05   0.00     0.02   0.01   0.06
  22   1     0.14   0.08  -0.08     0.03  -0.04   0.00    -0.05  -0.03   0.03
  23   1    -0.01  -0.01   0.05    -0.01   0.01  -0.24     0.00  -0.01  -0.05
  24   1    -0.01   0.02  -0.11    -0.09  -0.14   0.55    -0.01  -0.03   0.12
  25   1    -0.01  -0.01  -0.02    -0.03  -0.01   0.07    -0.01  -0.01   0.02
  26   1     0.00  -0.02   0.01    -0.09  -0.05  -0.04    -0.02  -0.00  -0.02
                     10                     11                     12
                        a                      a                      a 
 Frequencies --   329.4014               348.8327               393.5714
 Red. masses --     9.9765                10.5309                10.3743
 Frc consts  --     0.0000                 0.0000                 0.0000
 IR Inten    --    13.5675                24.6975                24.6773
 Raman Activ --     0.0000                 0.0000                 0.0000
 Depolar     --     0.0000                 0.0000                 0.0000
 Atom AN      X      Y      Z        X      Y      Z        X      Y      Z
   1   6    -0.04   0.06   0.02     0.06   0.18  -0.13    -0.29   0.06  -0.05
   2   6     0.14  -0.17  -0.04     0.28   0.07   0.05    -0.12  -0.00   0.08
   3   6     0.06  -0.15  -0.09     0.21   0.09  -0.04     0.07   0.09  -0.03
   4   6     0.06  -0.07  -0.03     0.03  -0.10  -0.02     0.06  -0.03  -0.07
   5   8     0.41  -0.04   0.04     0.04  -0.28   0.15    -0.17  -0.26   0.10
   6   8     0.27   0.11   0.04    -0.16  -0.25  -0.05    -0.14  -0.14  -0.13
   7   7    -0.17   0.16   0.04     0.35   0.01   0.03     0.08   0.15   0.04
   8   6    -0.03   0.16   0.03    -0.09   0.08   0.12    -0.24   0.03  -0.07
   9   7    -0.10   0.16   0.02    -0.17   0.06  -0.02     0.11   0.04  -0.03
  10   6    -0.19   0.00  -0.02    -0.17   0.09  -0.06     0.17   0.14   0.03
  11   7    -0.08  -0.12  -0.06    -0.18  -0.00   0.04     0.51  -0.07  -0.02
  12   7    -0.37  -0.04  -0.03    -0.26   0.09  -0.10    -0.00   0.13   0.03
  13   1    -0.01   0.05   0.01     0.04   0.01  -0.04    -0.12   0.02  -0.01
  14   1    -0.06  -0.00   0.04     0.00   0.06  -0.07    -0.07   0.02  -0.00
  15   1     0.02  -0.07   0.04     0.05  -0.02   0.11    -0.06  -0.06   0.06
  16   1     0.08  -0.08  -0.02     0.18   0.01   0.00     0.01  -0.01   0.02
  17   1     0.02  -0.06  -0.03     0.05   0.04  -0.01     0.01   0.04  -0.01
  18   1     0.08   0.03  -0.01    -0.07  -0.11  -0.01    -0.08  -0.11  -0.03
  19   1    -0.17   0.03   0.00     0.14   0.00   0.02    -0.01   0.03   0.01
  20   1    -0.02   0.03   0.01     0.14   0.01   0.01     0.05   0.04   0.01
  21   1     0.02   0.03   0.03     0.02   0.02   0.10    -0.04   0.03   0.04
  22   1    -0.02   0.04   0.01    -0.09  -0.02   0.05    -0.12  -0.01  -0.01
  23   1    -0.01  -0.14  -0.18    -0.06   0.04   0.09     0.08  -0.16  -0.01
  24   1     0.02  -0.15   0.38    -0.03   0.09  -0.28     0.20  -0.11   0.32
  25   1    -0.11  -0.05  -0.01    -0.07   0.01  -0.04    -0.01  -0.02   0.01
  26   1     0.11   0.03   0.07     0.02  -0.04   0.06    -0.04  -0.06   0.00
                     13                     14                     15
                        a                      a                      a 
 Frequencies --   404.7297               443.2444               460.5454
 Red. masses --    11.4960                 9.4506                 3.7440
 Frc consts  --     0.0000                 0.0000                 0.0000
 IR Inten    --     2.0170                18.9502               176.7097
 Raman Activ --     0.0000                 0.0000                 0.0000
 Depolar     --     0.0000                 0.0000                 0.0000
 Atom AN      X      Y      Z        X      Y      Z        X      Y      Z
   1   6    -0.25   0.03  -0.08    -0.15  -0.04  -0.02     0.01   0.07  -0.02
   2   6    -0.19   0.17   0.15     0.06  -0.18  -0.03    -0.01   0.08   0.02
   3   6     0.13   0.22   0.10     0.18   0.00  -0.23    -0.08   0.02   0.04
   4   6     0.09   0.04   0.01     0.06  -0.02  -0.08    -0.05  -0.00  -0.02
   5   8     0.37   0.13  -0.03    -0.30  -0.06  -0.17     0.03  -0.07   0.05
   6   8    -0.00   0.06   0.04     0.11   0.20  -0.01    -0.02  -0.08  -0.08
   7   7     0.19   0.20  -0.02     0.15   0.25   0.04    -0.05  -0.09  -0.01
   8   6    -0.27  -0.16  -0.06    -0.13  -0.01   0.04     0.01   0.02  -0.02
   9   7     0.01  -0.14  -0.12     0.04  -0.06   0.37    -0.04   0.02  -0.09
  10   6    -0.02  -0.25  -0.01     0.04  -0.09   0.16    -0.02   0.06   0.09
  11   7    -0.24  -0.10  -0.03    -0.11   0.04   0.02    -0.06  -0.13   0.31
  12   7     0.20  -0.25   0.05     0.06  -0.12  -0.03     0.10   0.07  -0.03
  13   1    -0.11  -0.02  -0.02    -0.05   0.00  -0.00    -0.00   0.02  -0.00
  14   1     0.00   0.03  -0.05    -0.06  -0.02   0.01     0.01   0.02  -0.00
  15   1    -0.07  -0.02   0.03    -0.01  -0.10   0.07     0.00   0.03   0.01
  16   1    -0.04   0.09   0.04     0.09  -0.12  -0.02     0.00   0.04   0.00
  17   1     0.04   0.10   0.03     0.05  -0.01  -0.06    -0.04   0.01   0.01
  18   1    -0.07  -0.09   0.01     0.19   0.34   0.10     0.09   0.14   0.02
  19   1     0.07   0.06  -0.01    -0.06   0.04   0.04     0.04  -0.01  -0.01
  20   1     0.04   0.05  -0.01     0.12   0.10   0.01    -0.02  -0.03  -0.00
  21   1    -0.07  -0.01   0.04    -0.05  -0.01  -0.01     0.02   0.00   0.00
  22   1    -0.13  -0.08  -0.00    -0.05   0.05   0.00     0.01  -0.00  -0.01
  23   1    -0.01   0.04  -0.10     0.04   0.09  -0.11     0.21  -0.06  -0.77
  24   1    -0.12  -0.05   0.04    -0.06   0.04  -0.12     0.25   0.08  -0.17
  25   1     0.07  -0.00   0.04     0.03  -0.03  -0.09     0.03   0.05   0.06
  26   1     0.11   0.07   0.02    -0.14  -0.16  -0.04     0.01  -0.01   0.05
                     16                     17                     18
                        a                      a                      a 
 Frequencies --   487.1154               498.1155               518.6841
 Red. masses --     4.2483                11.7019                 9.1178
 Frc consts  --     0.0000                 0.0000                 0.0000
 IR Inten    --    87.4982                22.8450                10.4536
 Raman Activ --     0.0000                 0.0000                 0.0000
 Depolar     --     0.0000                 0.0000                 0.0000
 Atom AN      X      Y      Z        X      Y      Z        X      Y      Z
   1   6    -0.01  -0.14   0.03    -0.01   0.10  -0.02    -0.05   0.36  -0.13
   2   6     0.03  -0.20  -0.06    -0.05   0.13   0.04     0.27  -0.04  -0.13
   3   6     0.08  -0.06  -0.14    -0.27   0.09  -0.11    -0.04  -0.13  -0.05
   4   6     0.06   0.10   0.04    -0.11   0.10  -0.23    -0.08  -0.05   0.11
   5   8    -0.20   0.09   0.05     0.03  -0.29   0.22    -0.12   0.19  -0.12
   6   8     0.09   0.12   0.09     0.30   0.08  -0.31     0.01   0.04   0.22
   7   7     0.04   0.12   0.03    -0.08  -0.14   0.00    -0.07  -0.16   0.01
   8   6     0.04   0.02   0.00     0.02   0.18   0.07    -0.16   0.01  -0.02
   9   7     0.08   0.05  -0.04    -0.01   0.08   0.26    -0.15  -0.05  -0.06
  10   6     0.03  -0.01   0.17    -0.06  -0.12   0.18    -0.08  -0.04   0.02
  11   7    -0.08   0.05   0.03    -0.07  -0.09  -0.11     0.05  -0.17  -0.03
  12   7    -0.05  -0.03  -0.01     0.26  -0.12   0.02     0.35   0.02   0.06
  13   1     0.00  -0.04   0.01     0.01  -0.00  -0.01    -0.04   0.28  -0.03
  14   1    -0.04  -0.04   0.01    -0.01   0.04  -0.04    -0.02   0.04   0.15
  15   1     0.00  -0.05   0.01    -0.01   0.09   0.08     0.03  -0.03   0.15
  16   1     0.02  -0.11  -0.02     0.05   0.00   0.00     0.25  -0.04  -0.05
  17   1     0.04  -0.04  -0.04    -0.14   0.04  -0.03     0.01  -0.08  -0.02
  18   1    -0.35  -0.64  -0.22     0.00  -0.14  -0.24    -0.04  -0.06   0.03
  19   1    -0.08   0.01   0.02     0.06  -0.03   0.02    -0.01  -0.04  -0.00
  20   1     0.05   0.05   0.01     0.01  -0.01   0.00    -0.01  -0.04   0.00
  21   1    -0.02   0.02  -0.02     0.00   0.04  -0.00     0.05  -0.01   0.11
  22   1     0.03   0.01  -0.00     0.00   0.09   0.01    -0.15  -0.06   0.02
  23   1     0.07   0.08  -0.23    -0.04  -0.01   0.09    -0.04  -0.13   0.07
  24   1     0.01   0.06  -0.12    -0.05  -0.03  -0.01     0.08  -0.05   0.04
  25   1    -0.02  -0.02   0.05     0.10   0.06  -0.07     0.13   0.14   0.04
  26   1     0.02   0.13  -0.16     0.03  -0.01   0.11    -0.01   0.07  -0.13
                     19                     20                     21
                        a                      a                      a 
 Frequencies --   558.5732               588.7894               613.9642
 Red. masses --    11.4199                 8.7824                 9.7074
 Frc consts  --     0.0000                 0.0000                 0.0000
 IR Inten    --     3.3773                 3.4033                23.1388
 Raman Activ --     0.0000                 0.0000                 0.0000
 Depolar     --     0.0000                 0.0000                 0.0000
 Atom AN      X      Y      Z        X      Y      Z        X      Y      Z
   1   6    -0.05  -0.08   0.02     0.08  -0.26   0.10     0.02  -0.05  -0.03
   2   6     0.01  -0.18  -0.05    -0.09  -0.06   0.05    -0.02   0.03  -0.04
   3   6     0.01  -0.02  -0.16     0.04   0.11  -0.16    -0.25   0.14  -0.32
   4   6    -0.01   0.24   0.12    -0.13  -0.02   0.01    -0.18   0.12   0.05
   5   8    -0.11   0.25   0.31    -0.01   0.04  -0.01     0.11   0.23   0.23
   6   8    -0.09  -0.34  -0.09     0.08   0.01   0.07     0.15  -0.14   0.04
   7   7     0.04   0.08   0.02     0.20   0.17  -0.01     0.03  -0.00   0.02
   8   6     0.07   0.24   0.04     0.07  -0.10   0.00    -0.08  -0.38  -0.09
   9   7     0.07   0.20  -0.19    -0.31  -0.05  -0.01     0.01  -0.20   0.05
  10   6     0.02  -0.14  -0.32    -0.31   0.15   0.04     0.11   0.08   0.00
  11   7    -0.11  -0.08   0.06    -0.01  -0.23  -0.04     0.13   0.14   0.03
  12   7     0.19  -0.12   0.10     0.20   0.27   0.00    -0.21   0.04  -0.04
  13   1     0.01  -0.06   0.00     0.04  -0.20   0.03    -0.04   0.11  -0.01
  14   1    -0.09  -0.02  -0.03     0.02  -0.03  -0.10     0.10  -0.04   0.11
  15   1    -0.00  -0.03   0.05    -0.00   0.01  -0.05    -0.02   0.09   0.19
  16   1     0.04  -0.12  -0.02    -0.10  -0.07   0.02     0.17  -0.12  -0.04
  17   1     0.03  -0.04  -0.05     0.03   0.05  -0.04    -0.07   0.01  -0.09
  18   1     0.08   0.09  -0.02     0.04   0.03  -0.03     0.11   0.06  -0.11
  19   1    -0.05   0.00   0.02     0.04   0.03   0.03     0.04  -0.01   0.04
  20   1     0.07   0.04   0.00     0.14   0.08  -0.00     0.15   0.05   0.00
  21   1    -0.01   0.12   0.02     0.00  -0.10  -0.09     0.01  -0.10   0.02
  22   1     0.02   0.04   0.02     0.13   0.02  -0.02    -0.06  -0.12  -0.01
  23   1    -0.01   0.01  -0.00    -0.11  -0.28   0.08     0.04   0.05  -0.00
  24   1    -0.10  -0.05   0.07     0.20  -0.04   0.05     0.03   0.05  -0.03
  25   1     0.07   0.05   0.10     0.10   0.23   0.01    -0.09  -0.13  -0.05
  26   1    -0.13  -0.13   0.21     0.04   0.09  -0.06     0.05   0.12   0.12
                     22                     23                     24
                        a                      a                      a 
 Frequencies --   650.7414               682.8233               730.6798
 Red. masses --    11.7752                 2.7113                 3.2772
 Frc consts  --     0.0000                 0.0000                 0.0000
 IR Inten    --    73.3448               202.1471               125.1965
 Raman Activ --     0.0000                 0.0000                 0.0000
 Depolar     --     0.0000                 0.0000                 0.0000
 Atom AN      X      Y      Z        X      Y      Z        X      Y      Z
   1   6    -0.01   0.02  -0.00     0.03  -0.02  -0.01    -0.01  -0.00  -0.00
   2   6    -0.03   0.05   0.01     0.03   0.00  -0.00     0.01  -0.02  -0.01
   3   6    -0.05   0.04  -0.04     0.04  -0.03   0.08     0.03  -0.01   0.02
   4   6    -0.04  -0.10  -0.04     0.05   0.02  -0.02    -0.02   0.01   0.03
   5   8     0.01  -0.09  -0.15     0.08   0.17  -0.12    -0.05  -0.03   0.04
   6   8     0.10   0.16   0.07     0.04   0.10  -0.02    -0.02  -0.01  -0.04
   7   7     0.01  -0.01  -0.00    -0.01  -0.02   0.00     0.01   0.01  -0.00
   8   6    -0.03  -0.03   0.05    -0.03  -0.15  -0.05     0.01   0.02  -0.01
   9   7    -0.09  -0.06   0.37    -0.05  -0.04  -0.00     0.01   0.01  -0.08
  10   6     0.10   0.01  -0.75    -0.08   0.07   0.06     0.02  -0.01  -0.15
  11   7     0.03  -0.00   0.22    -0.00  -0.01   0.02    -0.03  -0.02   0.12
  12   7    -0.01   0.05   0.21    -0.00   0.10   0.01    -0.00   0.01   0.35
  13   1     0.00  -0.01  -0.00    -0.01   0.04  -0.00    -0.00  -0.00  -0.00
  14   1     0.01   0.01  -0.02     0.04  -0.02   0.05    -0.01  -0.00  -0.00
  15   1    -0.01   0.02   0.02     0.01  -0.01  -0.02     0.00  -0.01  -0.01
  16   1     0.01   0.01   0.00    -0.00   0.03   0.00    -0.00   0.00  -0.00
  17   1    -0.03   0.02  -0.01     0.01  -0.01   0.02     0.01  -0.00   0.00
  18   1    -0.08  -0.16  -0.07    -0.13  -0.21  -0.05     0.00   0.01  -0.01
  19   1     0.02  -0.00   0.00    -0.03  -0.00  -0.01     0.00   0.00  -0.00
  20   1     0.03   0.01  -0.00    -0.06  -0.01   0.00     0.00  -0.00  -0.00
  21   1    -0.01  -0.06  -0.03     0.01  -0.05   0.00    -0.00   0.01  -0.00
  22   1     0.02   0.06  -0.00    -0.02  -0.04  -0.01     0.01  -0.00  -0.00
  23   1     0.03  -0.01  -0.07    -0.02  -0.06  -0.01     0.01  -0.01  -0.05
  24   1     0.00   0.01  -0.00     0.07   0.01  -0.01    -0.01  -0.01   0.02
  25   1    -0.01   0.02   0.18     0.04   0.06  -0.27     0.09  -0.05  -0.86
  26   1    -0.01  -0.04  -0.00    -0.31  -0.56   0.54     0.09   0.19  -0.14
                     25                     26                     27
                        a                      a                      a 
 Frequencies --   747.3525               875.0981               888.6642
 Red. masses --    11.0522                 8.6234                 6.5274
 Frc consts  --     0.0000                 0.0000                 0.0000
 IR Inten    --    12.0516                19.7488                 8.6412
 Raman Activ --     0.0000                 0.0000                 0.0000
 Depolar     --     0.0000                 0.0000                 0.0000
 Atom AN      X      Y      Z        X      Y      Z        X      Y      Z
   1   6    -0.04   0.09   0.06     0.09  -0.26  -0.10     0.06  -0.26  -0.09
   2   6    -0.15   0.13   0.04    -0.18   0.07  -0.00     0.18  -0.17   0.07
   3   6    -0.22   0.10  -0.29    -0.17   0.07  -0.04    -0.08   0.12   0.07
   4   6    -0.06  -0.22   0.03     0.42   0.17  -0.04    -0.39  -0.18  -0.03
   5   8     0.09  -0.11  -0.30    -0.00  -0.17  -0.07     0.03  -0.03  -0.09
   6   8     0.04  -0.12   0.48    -0.02  -0.12   0.16     0.02   0.00   0.12
   7   7     0.00  -0.02   0.01    -0.03   0.01  -0.00     0.07   0.11  -0.02
   8   6     0.08   0.25   0.08     0.09  -0.03  -0.11     0.05   0.20  -0.16
   9   7     0.03   0.04  -0.21     0.20   0.18   0.10     0.00   0.09   0.02
  10   6     0.08  -0.04   0.10    -0.09   0.04  -0.04     0.01  -0.01   0.01
  11   7     0.08   0.06  -0.00    -0.21  -0.14  -0.02     0.06   0.04   0.01
  12   7     0.01  -0.08   0.00    -0.04   0.14   0.01     0.03  -0.07   0.00
  13   1     0.05  -0.16   0.01    -0.08   0.21  -0.02    -0.16   0.16  -0.01
  14   1    -0.06   0.08  -0.17     0.12  -0.14   0.24    -0.05  -0.16   0.23
  15   1    -0.04   0.11   0.11    -0.03   0.16   0.14     0.12   0.00  -0.25
  16   1     0.03  -0.09  -0.00     0.08  -0.01  -0.01    -0.19   0.08   0.05
  17   1    -0.05   0.02  -0.08    -0.07   0.02  -0.01    -0.05   0.16   0.03
  18   1    -0.02  -0.07   0.12    -0.03  -0.02   0.18     0.02  -0.00  -0.10
  19   1     0.04  -0.02   0.04    -0.00   0.01  -0.00     0.14   0.05  -0.01
  20   1     0.15   0.06   0.00     0.00   0.00  -0.00     0.10   0.01  -0.01
  21   1    -0.02   0.07  -0.04     0.05   0.09   0.11     0.10   0.18   0.19
  22   1     0.10   0.06   0.01    -0.16  -0.04   0.01    -0.28  -0.05   0.02
  23   1     0.05   0.08  -0.02    -0.08  -0.09   0.01     0.04   0.06  -0.01
  24   1    -0.04   0.00   0.01    -0.01  -0.03  -0.01    -0.02   0.01  -0.02
  25   1     0.01  -0.05  -0.09     0.02   0.13  -0.02     0.01  -0.02   0.01
  26   1    -0.05  -0.16   0.05    -0.00  -0.09  -0.17     0.01   0.06   0.13
                     28                     29                     30
                        a                      a                      a 
 Frequencies --   930.3541               958.4365               992.5575
 Red. masses --     6.0438                 8.1231                 7.1010
 Frc consts  --     0.0000                 0.0000                 0.0000
 IR Inten    --    17.3046                53.2276                77.8340
 Raman Activ --     0.0000                 0.0000                 0.0000
 Depolar     --     0.0000                 0.0000                 0.0000
 Atom AN      X      Y      Z        X      Y      Z        X      Y      Z
   1   6     0.09   0.21   0.10     0.00   0.17  -0.15     0.11  -0.16   0.10
   2   6     0.16   0.05   0.29    -0.42  -0.02   0.15    -0.02   0.23   0.00
   3   6     0.04  -0.11  -0.28     0.12  -0.12  -0.03     0.06  -0.09  -0.07
   4   6     0.17   0.08  -0.06    -0.18  -0.18   0.16    -0.15  -0.26   0.31
   5   8    -0.05   0.07   0.08    -0.00   0.02  -0.02     0.01   0.00  -0.02
   6   8     0.01  -0.04   0.04    -0.01   0.08  -0.13    -0.02   0.11  -0.22
   7   7    -0.15  -0.15   0.00     0.12  -0.02  -0.02     0.08  -0.06  -0.01
   8   6    -0.10  -0.04  -0.22     0.42   0.07  -0.07    -0.18  -0.03  -0.05
   9   7     0.03  -0.01   0.09     0.09  -0.07   0.05     0.04   0.18  -0.02
  10   6    -0.00   0.01  -0.02    -0.04   0.01  -0.01    -0.02   0.04   0.03
  11   7    -0.04  -0.03   0.00    -0.09   0.07  -0.00     0.11  -0.21   0.00
  12   7    -0.01   0.02   0.01    -0.01  -0.00  -0.01    -0.02   0.08  -0.02
  13   1    -0.20  -0.20   0.05    -0.07   0.07  -0.03    -0.01  -0.01   0.03
  14   1     0.15   0.15  -0.20     0.09   0.06  -0.03     0.18  -0.03   0.05
  15   1     0.14   0.09  -0.26    -0.18  -0.12   0.18     0.03   0.23   0.09
  16   1    -0.34  -0.07   0.11     0.01  -0.06   0.03     0.07  -0.01  -0.01
  17   1     0.00   0.02  -0.07     0.15  -0.04  -0.01     0.20  -0.11  -0.03
  18   1    -0.00  -0.01   0.04     0.01   0.01  -0.08    -0.01   0.01  -0.05
  19   1    -0.13  -0.11   0.10    -0.22  -0.06   0.04    -0.17  -0.06   0.03
  20   1     0.11   0.08   0.01    -0.03   0.08   0.01    -0.01   0.07   0.01
  21   1     0.09   0.02   0.13     0.25   0.06   0.20    -0.15   0.10  -0.04
  22   1    -0.23  -0.11  -0.01    -0.10  -0.12   0.04    -0.06   0.05  -0.02
  23   1    -0.01  -0.01   0.00    -0.07  -0.08   0.03     0.16   0.24  -0.05
  24   1     0.00   0.00  -0.02     0.12   0.06  -0.04    -0.33  -0.13   0.03
  25   1     0.00   0.02  -0.01    -0.01  -0.02   0.00     0.04   0.20   0.00
  26   1    -0.01  -0.03  -0.07     0.00   0.03   0.04    -0.00  -0.02  -0.03
                     31                     32                     33
                        a                      a                      a 
 Frequencies --  1007.2832              1025.9373              1034.9954
 Red. masses --     6.4261                 6.2250                 4.4526
 Frc consts  --     0.0000                 0.0000                 0.0000
 IR Inten    --   165.3645                45.4895                 1.3077
 Raman Activ --     0.0000                 0.0000                 0.0000
 Depolar     --     0.0000                 0.0000                 0.0000
 Atom AN      X      Y      Z        X      Y      Z        X      Y      Z
   1   6     0.05   0.01   0.05    -0.01  -0.14   0.16    -0.00  -0.17  -0.13
   2   6     0.01   0.04  -0.00     0.10   0.14  -0.11     0.02   0.17   0.17
   3   6    -0.11  -0.13   0.03    -0.05   0.02   0.00     0.10  -0.12  -0.13
   4   6    -0.05   0.14  -0.20     0.03  -0.06   0.32     0.01  -0.05  -0.14
   5   8    -0.01  -0.04  -0.02     0.05  -0.05  -0.05    -0.04   0.08   0.07
   6   8    -0.00  -0.08   0.18    -0.01   0.08  -0.19     0.01  -0.03   0.05
   7   7     0.50   0.05  -0.02     0.02   0.01   0.02     0.00  -0.16  -0.07
   8   6    -0.07   0.03  -0.05    -0.16   0.13  -0.08    -0.10   0.03   0.17
   9   7    -0.11  -0.00   0.01     0.02  -0.02  -0.01    -0.03   0.06  -0.06
  10   6    -0.01  -0.03  -0.00    -0.01  -0.07  -0.03    -0.01  -0.04  -0.01
  11   7     0.06   0.04   0.01    -0.09   0.27   0.00    -0.01   0.14   0.00
  12   7     0.02  -0.05   0.01     0.05  -0.20   0.00     0.04  -0.12   0.02
  13   1    -0.02  -0.03   0.02    -0.07  -0.09   0.05     0.08   0.18  -0.04
  14   1     0.02   0.01  -0.01    -0.04  -0.03   0.01     0.00  -0.11   0.16
  15   1     0.05   0.15  -0.01     0.11   0.31   0.03     0.01   0.01  -0.04
  16   1    -0.02  -0.06  -0.00     0.03  -0.13  -0.04     0.04   0.41   0.06
  17   1    -0.21  -0.12   0.01     0.12  -0.17  -0.02     0.08   0.23  -0.02
  18   1     0.03   0.02  -0.05    -0.02  -0.00  -0.01    -0.00  -0.00   0.03
  19   1    -0.41   0.02  -0.14     0.06   0.04  -0.04    -0.37  -0.19   0.16
  20   1    -0.52   0.03   0.03    -0.03  -0.04   0.00     0.16   0.22   0.01
  21   1     0.01   0.00   0.01    -0.05   0.08   0.03    -0.11  -0.04  -0.12
  22   1    -0.05  -0.01  -0.01    -0.07   0.00  -0.01     0.12   0.14  -0.01
  23   1     0.03   0.03  -0.00    -0.18  -0.29   0.05    -0.07  -0.11   0.02
  24   1     0.01   0.01  -0.00     0.40   0.15  -0.01     0.18   0.07   0.00
  25   1    -0.00  -0.04  -0.00    -0.03  -0.20   0.01    -0.01  -0.11   0.00
  26   1     0.02   0.06   0.05    -0.01  -0.07  -0.07    -0.00   0.02   0.01
                     34                     35                     36
                        a                      a                      a 
 Frequencies --  1053.8249              1076.6769              1088.9866
 Red. masses --    10.6517                 9.3599                 8.2884
 Frc consts  --     0.0000                 0.0000                 0.0000
 IR Inten    --    33.5131               123.4618                29.3353
 Raman Activ --     0.0000                 0.0000                 0.0000
 Depolar     --     0.0000                 0.0000                 0.0000
 Atom AN      X      Y      Z        X      Y      Z        X      Y      Z
   1   6     0.13  -0.02  -0.11     0.07  -0.04   0.07    -0.24   0.07  -0.07
   2   6    -0.12  -0.09   0.10    -0.01   0.06  -0.03     0.19  -0.03   0.04
   3   6    -0.02  -0.04   0.03     0.30   0.02   0.02    -0.21   0.02  -0.05
   4   6     0.13   0.37   0.20    -0.26   0.43  -0.00     0.00   0.20   0.39
   5   8     0.10  -0.16  -0.09     0.04  -0.27  -0.25     0.10  -0.14  -0.12
   6   8    -0.02   0.02  -0.06    -0.10  -0.06   0.25    -0.06   0.05  -0.05
   7   7    -0.04   0.03  -0.03    -0.16  -0.10   0.05     0.11  -0.02  -0.03
   8   6     0.03   0.07   0.00    -0.10  -0.06  -0.04     0.16  -0.05   0.10
   9   7    -0.54   0.01  -0.05     0.09   0.13   0.01     0.15  -0.19  -0.02
  10   6    -0.10  -0.11   0.01     0.09   0.03   0.00     0.11   0.07   0.02
  11   7     0.31   0.15   0.03    -0.10  -0.04  -0.01    -0.13  -0.16  -0.02
  12   7     0.01  -0.20   0.01     0.06   0.06  -0.01    -0.03   0.21  -0.03
  13   1    -0.01   0.08  -0.02     0.02  -0.03   0.02    -0.05   0.00  -0.02
  14   1     0.01  -0.04   0.06     0.22   0.03  -0.02    -0.37  -0.04   0.01
  15   1    -0.01   0.04   0.02    -0.06  -0.13   0.04     0.10   0.09  -0.12
  16   1    -0.05  -0.04   0.03     0.05  -0.03  -0.02    -0.05   0.17   0.03
  17   1     0.11  -0.00   0.00     0.16  -0.06  -0.00    -0.01   0.09  -0.01
  18   1     0.01   0.01  -0.06     0.10   0.07  -0.36     0.05   0.05  -0.25
  19   1     0.01  -0.02   0.04    -0.01  -0.04   0.04    -0.16  -0.04   0.01
  20   1     0.11   0.04  -0.01     0.00  -0.04   0.01    -0.01   0.10   0.01
  21   1     0.16  -0.15   0.03    -0.11   0.08  -0.02     0.05  -0.07  -0.01
  22   1    -0.05   0.02   0.01    -0.01   0.00  -0.01     0.09  -0.03   0.02
  23   1     0.16   0.21  -0.00    -0.06  -0.09   0.01    -0.03  -0.03  -0.00
  24   1    -0.02   0.03  -0.00     0.01  -0.01   0.01    -0.11  -0.06   0.00
  25   1     0.02   0.01  -0.01    -0.03  -0.14   0.01    -0.03  -0.03  -0.00
  26   1    -0.02  -0.14  -0.16     0.02   0.06   0.11    -0.02  -0.13  -0.12
                     37                     38                     39
                        a                      a                      a 
 Frequencies --  1118.7547              1138.3656              1148.2314
 Red. masses --     7.1529                 5.7850                 6.0827
 Frc consts  --     0.0000                 0.0000                 0.0000
 IR Inten    --    55.0270               106.4093                 2.5821
 Raman Activ --     0.0000                 0.0000                 0.0000
 Depolar     --     0.0000                 0.0000                 0.0000
 Atom AN      X      Y      Z        X      Y      Z        X      Y      Z
   1   6    -0.20  -0.16   0.15     0.15   0.04  -0.16     0.22   0.06   0.22
   2   6     0.01   0.24  -0.14    -0.09  -0.09   0.11    -0.09  -0.14  -0.06
   3   6     0.26   0.03   0.04    -0.06  -0.08   0.07    -0.20  -0.13   0.15
   4   6     0.03   0.09  -0.27     0.04  -0.02  -0.02     0.06   0.05   0.05
   5   8    -0.06   0.03   0.01    -0.06   0.01  -0.04     0.00  -0.01  -0.01
   6   8     0.03  -0.03   0.05     0.05   0.02  -0.08     0.01   0.02  -0.05
   7   7    -0.13  -0.10   0.01     0.03   0.07  -0.03     0.08   0.08  -0.12
   8   6     0.21   0.12  -0.10    -0.09   0.11   0.14    -0.20   0.12  -0.33
   9   7    -0.19  -0.24   0.06    -0.13  -0.08  -0.08    -0.07  -0.10   0.09
  10   6     0.00   0.02   0.01     0.22   0.09   0.04     0.07   0.03   0.01
  11   7     0.05  -0.06   0.00    -0.15  -0.19  -0.02    -0.03  -0.06  -0.00
  12   7     0.01   0.09   0.00     0.16   0.25   0.00     0.04   0.07  -0.00
  13   1    -0.09  -0.09   0.04    -0.07   0.10  -0.03     0.46  -0.06   0.02
  14   1    -0.35  -0.08   0.02     0.08  -0.01   0.05    -0.07   0.04  -0.07
  15   1     0.05   0.28   0.09     0.04   0.18   0.00    -0.06  -0.10   0.07
  16   1     0.13   0.04  -0.05    -0.11  -0.20   0.03     0.11   0.18  -0.01
  17   1     0.21  -0.08  -0.01     0.11  -0.08   0.01    -0.01   0.16   0.05
  18   1    -0.02  -0.02   0.11    -0.05  -0.04   0.17    -0.02  -0.01   0.05
  19   1    -0.06  -0.06   0.06     0.04   0.01   0.01    -0.06  -0.04   0.06
  20   1     0.05  -0.01   0.00     0.07   0.02  -0.01     0.19   0.14  -0.02
  21   1     0.12   0.08   0.12     0.03  -0.15  -0.07    -0.07   0.23   0.09
  22   1    -0.05  -0.19   0.03    -0.05   0.23  -0.01    -0.05  -0.26  -0.02
  23   1     0.06   0.09  -0.01    -0.04  -0.06  -0.01    -0.01  -0.03  -0.01
  24   1    -0.10  -0.03  -0.00    -0.14  -0.07  -0.00    -0.04  -0.02   0.00
  25   1    -0.02  -0.06   0.00    -0.13  -0.50   0.03    -0.04  -0.15   0.00
  26   1     0.02   0.14   0.15     0.01   0.13   0.18    -0.00  -0.01   0.01
                     40                     41                     42
                        a                      a                      a 
 Frequencies --  1171.3724              1182.4790              1201.8276
 Red. masses --     8.3311                 5.2700                 5.8797
 Frc consts  --     0.0000                 0.0000                 0.0000
 IR Inten    --     2.8417               172.0136               109.0806
 Raman Activ --     0.0000                 0.0000                 0.0000
 Depolar     --     0.0000                 0.0000                 0.0000
 Atom AN      X      Y      Z        X      Y      Z        X      Y      Z
   1   6     0.15  -0.06  -0.03     0.05   0.14  -0.06     0.16   0.08  -0.11
   2   6    -0.05  -0.09  -0.02     0.02  -0.20  -0.04    -0.17  -0.07   0.12
   3   6     0.23   0.52  -0.16    -0.09   0.20   0.17     0.12  -0.14   0.13
   4   6     0.09  -0.13   0.10    -0.10   0.15   0.05     0.01  -0.09  -0.23
   5   8     0.03   0.05   0.06    -0.05  -0.15  -0.16     0.03   0.10   0.11
   6   8     0.00   0.02  -0.04     0.08  -0.04  -0.06    -0.12   0.01   0.15
   7   7    -0.11  -0.27   0.19     0.02  -0.10  -0.01    -0.04   0.07  -0.04
   8   6    -0.11   0.16  -0.05    -0.08  -0.13   0.01    -0.18   0.13   0.02
   9   7    -0.08  -0.16  -0.02     0.20   0.10   0.01     0.19  -0.20  -0.02
  10   6     0.03   0.02   0.01    -0.07  -0.03  -0.02     0.02   0.01  -0.01
  11   7    -0.01  -0.04   0.00     0.02   0.07  -0.00    -0.03   0.01   0.00
  12   7     0.02   0.06  -0.00    -0.08  -0.11  -0.01    -0.10  -0.03  -0.01
  13   1     0.18   0.05  -0.02     0.10   0.01  -0.03     0.20   0.10  -0.04
  14   1    -0.08  -0.05   0.04    -0.15   0.01  -0.03    -0.20  -0.04   0.04
  15   1    -0.03  -0.09  -0.01     0.07   0.14  -0.02     0.08   0.37   0.05
  16   1    -0.04  -0.20  -0.02    -0.08  -0.25  -0.02    -0.09  -0.19   0.03
  17   1    -0.06   0.29  -0.02     0.28   0.16   0.04     0.05  -0.05   0.03
  18   1     0.01   0.01  -0.04    -0.07  -0.06   0.32     0.10   0.09  -0.40
  19   1    -0.18  -0.04  -0.03    -0.20  -0.08   0.06     0.08   0.00   0.03
  20   1    -0.31  -0.09   0.06     0.05   0.11   0.01     0.10  -0.01  -0.02
  21   1     0.00   0.02   0.01     0.01  -0.10  -0.04     0.01  -0.09  -0.05
  22   1    -0.05   0.01  -0.01     0.03   0.01  -0.02     0.00   0.05  -0.02
  23   1     0.00  -0.00  -0.01    -0.00   0.00   0.01    -0.02  -0.02  -0.00
  24   1    -0.03  -0.02  -0.00     0.07   0.03   0.00     0.03   0.01  -0.00
  25   1    -0.03  -0.10  -0.00     0.06   0.27   0.01     0.05   0.25  -0.02
  26   1    -0.01  -0.09  -0.11     0.06   0.25   0.27    -0.02  -0.10  -0.12
                     43                     44                     45
                        a                      a                      a 
 Frequencies --  1232.6470              1247.8355              1263.9685
 Red. masses --     6.1329                 8.1000                 3.4346
 Frc consts  --     0.0000                 0.0000                 0.0000
 IR Inten    --    96.1661                58.7851                37.8993
 Raman Activ --     0.0000                 0.0000                 0.0000
 Depolar     --     0.0000                 0.0000                 0.0000
 Atom AN      X      Y      Z        X      Y      Z        X      Y      Z
   1   6     0.05  -0.03  -0.14     0.00   0.08   0.01     0.17  -0.06   0.26
   2   6    -0.03   0.05   0.32    -0.08  -0.01   0.14    -0.05   0.06  -0.07
   3   6     0.09  -0.07  -0.32     0.14  -0.02  -0.15     0.02  -0.03  -0.07
   4   6    -0.02   0.16   0.15    -0.05  -0.11   0.02    -0.01   0.04   0.08
   5   8    -0.05  -0.07  -0.10    -0.03  -0.01  -0.01    -0.02  -0.02  -0.05
   6   8     0.07  -0.01  -0.07    -0.01  -0.01   0.02     0.01  -0.00  -0.02
   7   7    -0.03   0.05   0.09    -0.03   0.02   0.06    -0.01   0.01  -0.01
   8   6    -0.09   0.16   0.01     0.02  -0.36  -0.16    -0.13   0.13  -0.04
   9   7     0.05  -0.25   0.02    -0.02   0.55   0.04     0.14  -0.10  -0.10
  10   6    -0.02  -0.01  -0.00    -0.02   0.02  -0.00     0.07  -0.00  -0.00
  11   7     0.02   0.02   0.00    -0.03  -0.01  -0.01    -0.05  -0.01  -0.01
  12   7    -0.07  -0.00  -0.01     0.13  -0.05   0.02    -0.07  -0.01  -0.01
  13   1     0.24   0.14  -0.05     0.28   0.00  -0.02    -0.02  -0.12   0.07
  14   1    -0.07  -0.06   0.08    -0.38  -0.05   0.02    -0.13  -0.02  -0.00
  15   1     0.00  -0.05  -0.06     0.03   0.15   0.01    -0.09  -0.19   0.06
  16   1    -0.10   0.17   0.10    -0.03   0.09   0.04     0.13   0.24  -0.02
  17   1    -0.06  -0.33  -0.10    -0.07  -0.07  -0.04    -0.11  -0.04  -0.01
  18   1    -0.04  -0.04   0.20    -0.00  -0.00  -0.01    -0.00  -0.00   0.02
  19   1     0.17   0.09  -0.08     0.09   0.05  -0.04     0.01   0.00  -0.00
  20   1    -0.15  -0.15   0.01    -0.09  -0.09   0.01    -0.00  -0.01  -0.00
  21   1    -0.11   0.13  -0.01     0.15  -0.18   0.03     0.32  -0.42  -0.00
  22   1     0.12  -0.12   0.01    -0.02  -0.07  -0.02    -0.39   0.37  -0.04
  23   1     0.00  -0.01  -0.00    -0.00   0.02   0.01    -0.01   0.01   0.01
  24   1     0.01   0.00   0.01    -0.01  -0.00  -0.01     0.02   0.01  -0.02
  25   1     0.03   0.16   0.01    -0.03  -0.23   0.01     0.03   0.16   0.00
  26   1     0.03   0.18   0.19    -0.00  -0.01  -0.01     0.02   0.09   0.10
                     46                     47                     48
                        a                      a                      a 
 Frequencies --  1296.0514              1312.4193              1345.6720
 Red. masses --     4.0933                 3.9315                 4.9492
 Frc consts  --     0.0000                 0.0000                 0.0000
 IR Inten    --    86.0368                10.2266                32.9303
 Raman Activ --     0.0000                 0.0000                 0.0000
 Depolar     --     0.0000                 0.0000                 0.0000
 Atom AN      X      Y      Z        X      Y      Z        X      Y      Z
   1   6    -0.09   0.03   0.00     0.14  -0.05  -0.07    -0.10  -0.10  -0.02
   2   6    -0.10  -0.14  -0.11     0.08   0.38   0.03     0.07   0.04  -0.01
   3   6     0.33  -0.15  -0.00     0.08   0.00   0.16    -0.14   0.13   0.03
   4   6     0.04   0.03   0.24    -0.02   0.02   0.08     0.32  -0.18   0.06
   5   8    -0.05  -0.05  -0.10     0.01  -0.02  -0.02    -0.10   0.00  -0.07
   6   8     0.01   0.02  -0.05     0.01   0.00  -0.03    -0.10   0.03   0.04
   7   7    -0.07   0.03  -0.05    -0.00  -0.01  -0.19     0.00  -0.03  -0.03
   8   6     0.02   0.03   0.03    -0.01  -0.06  -0.00    -0.16   0.21  -0.02
   9   7    -0.01  -0.02  -0.01    -0.01   0.02   0.00     0.06   0.10   0.03
  10   6    -0.04   0.01  -0.00    -0.01  -0.00   0.00    -0.13   0.03  -0.02
  11   7     0.02   0.01  -0.00     0.01   0.01   0.00     0.00  -0.03  -0.01
  12   7     0.00  -0.02  -0.01     0.01  -0.00  -0.00     0.06  -0.03   0.00
  13   1    -0.06  -0.00   0.00    -0.03   0.00  -0.01     0.01  -0.00  -0.01
  14   1     0.16   0.05  -0.05    -0.30  -0.10   0.10     0.16  -0.01   0.04
  15   1     0.09   0.36   0.06    -0.11  -0.31  -0.00    -0.01  -0.11  -0.04
  16   1     0.06   0.03  -0.03    -0.13  -0.42  -0.01    -0.01  -0.03  -0.00
  17   1    -0.61   0.31   0.07    -0.41  -0.21   0.05     0.01  -0.13  -0.01
  18   1    -0.00  -0.00   0.00    -0.01  -0.01   0.04     0.07   0.07  -0.28
  19   1     0.02  -0.03   0.07    -0.13  -0.12   0.13    -0.05  -0.02   0.01
  20   1     0.07  -0.02  -0.02     0.22   0.11  -0.04     0.05   0.05  -0.00
  21   1    -0.00   0.01   0.00    -0.08   0.07  -0.02     0.26  -0.31   0.01
  22   1     0.05  -0.04   0.01     0.00  -0.01  -0.00     0.26  -0.36   0.04
  23   1     0.01   0.01   0.01    -0.00  -0.01  -0.00     0.04   0.11   0.02
  24   1     0.00   0.00   0.01    -0.00  -0.00   0.00     0.02  -0.00   0.01
  25   1     0.01   0.02   0.01    -0.00  -0.01   0.00    -0.01  -0.07   0.01
  26   1     0.02   0.15   0.18    -0.00  -0.00   0.00     0.03   0.22   0.26
                     49                     50                     51
                        a                      a                      a 
 Frequencies --  1351.7671              1365.2397              1372.3280
 Red. masses --     5.0988                 5.3900                 5.4832
 Frc consts  --     0.0000                 0.0000                 0.0000
 IR Inten    --     6.0316                 4.1374                29.0922
 Raman Activ --     0.0000                 0.0000                 0.0000
 Depolar     --     0.0000                 0.0000                 0.0000
 Atom AN      X      Y      Z        X      Y      Z        X      Y      Z
   1   6     0.51   0.13  -0.05    -0.03   0.05   0.00    -0.04   0.09   0.03
   2   6    -0.16  -0.15  -0.04    -0.05  -0.32   0.01     0.02  -0.13   0.03
   3   6    -0.00   0.05  -0.05     0.11   0.41   0.14    -0.08   0.19   0.02
   4   6     0.09  -0.05   0.02    -0.18   0.02  -0.06     0.35  -0.13   0.04
   5   8    -0.03  -0.00  -0.02     0.07   0.00   0.05    -0.10  -0.00  -0.06
   6   8    -0.02   0.01   0.01     0.04  -0.02  -0.01    -0.09   0.03   0.04
   7   7    -0.01  -0.00   0.03    -0.02  -0.07  -0.13    -0.02  -0.04  -0.04
   8   6    -0.13  -0.04   0.05    -0.05   0.04  -0.00     0.22  -0.20   0.01
   9   7    -0.00   0.04   0.02     0.02   0.02   0.00    -0.09  -0.07  -0.03
  10   6    -0.03   0.02  -0.00     0.06  -0.01   0.01    -0.18   0.02  -0.01
  11   7     0.02   0.01   0.00    -0.03  -0.02  -0.00     0.09   0.05   0.01
  12   7     0.02  -0.03   0.00    -0.01   0.03   0.00     0.04  -0.05   0.00
  13   1    -0.58  -0.11   0.04    -0.00  -0.04   0.00     0.13   0.00  -0.00
  14   1    -0.32  -0.04  -0.01     0.13   0.03   0.01    -0.02   0.03  -0.02
  15   1    -0.05  -0.02   0.07     0.07   0.14  -0.04     0.02   0.03  -0.01
  16   1     0.09   0.22  -0.01     0.09   0.24   0.01    -0.02   0.09   0.02
  17   1     0.03   0.01  -0.02    -0.19  -0.55  -0.00    -0.01  -0.22  -0.01
  18   1     0.02   0.02  -0.07    -0.03  -0.03   0.13     0.06   0.07  -0.27
  19   1     0.02   0.02  -0.02    -0.17  -0.10   0.09    -0.05  -0.03   0.02
  20   1    -0.03  -0.01   0.01     0.15   0.09  -0.03     0.05   0.05  -0.01
  21   1    -0.16   0.11  -0.04     0.06  -0.05   0.03    -0.23   0.28  -0.01
  22   1     0.18  -0.15   0.01     0.07  -0.05   0.00    -0.29   0.35  -0.04
  23   1    -0.00  -0.01  -0.00    -0.01  -0.00   0.00     0.02   0.00  -0.01
  24   1    -0.01  -0.00   0.01    -0.00  -0.00  -0.00    -0.00   0.01   0.01
  25   1     0.00  -0.01   0.00    -0.00  -0.01  -0.00     0.00  -0.03   0.01
  26   1     0.01   0.06   0.07    -0.02  -0.15  -0.17     0.03   0.21   0.24
                     52                     53                     54
                        a                      a                      a 
 Frequencies --  1411.3488              1466.6765              1475.5206
 Red. masses --     9.1251                 2.5354                 1.9262
 Frc consts  --     0.0000                 0.0000                 0.0000
 IR Inten    --   294.3290                78.5492                 1.3593
 Raman Activ --     0.0000                 0.0000                 0.0000
 Depolar     --     0.0000                 0.0000                 0.0000
 Atom AN      X      Y      Z        X      Y      Z        X      Y      Z
   1   6     0.03   0.02   0.02    -0.02   0.03  -0.03    -0.04   0.14  -0.12
   2   6    -0.01  -0.00  -0.00    -0.05   0.03   0.04     0.15  -0.04  -0.15
   3   6     0.02  -0.04   0.00    -0.01  -0.02  -0.00     0.02  -0.00  -0.01
   4   6    -0.10   0.07  -0.01     0.04  -0.02   0.00    -0.01   0.00  -0.01
   5   8     0.03  -0.00   0.01    -0.01   0.00  -0.00     0.00   0.00   0.00
   6   8     0.02  -0.01   0.00    -0.01   0.01   0.00     0.00  -0.00   0.00
   7   7    -0.00   0.01   0.00     0.00   0.00   0.01    -0.00  -0.00   0.01
   8   6    -0.06   0.02   0.02    -0.15  -0.13  -0.09    -0.01   0.01  -0.01
   9   7     0.36  -0.14   0.01    -0.09  -0.02  -0.02    -0.00  -0.01   0.00
  10   6    -0.62  -0.20  -0.09     0.17  -0.03   0.01     0.01  -0.01  -0.00
  11   7     0.11  -0.01   0.01    -0.14  -0.10  -0.04    -0.01  -0.01  -0.00
  12   7     0.12   0.25   0.01    -0.04   0.03  -0.00    -0.00   0.01   0.00
  13   1    -0.00   0.01   0.00    -0.00  -0.12  -0.00     0.07  -0.44  -0.01
  14   1    -0.03   0.01  -0.03     0.01  -0.04   0.12     0.09  -0.13   0.43
  15   1     0.00   0.01   0.01     0.02  -0.01  -0.16    -0.09   0.02   0.49
  16   1     0.00   0.00  -0.00     0.15  -0.06  -0.02    -0.48   0.14   0.05
  17   1     0.00   0.02   0.00     0.01   0.02  -0.00     0.01   0.03  -0.00
  18   1    -0.01  -0.02   0.06     0.01   0.01  -0.03    -0.00  -0.00   0.01
  19   1     0.02   0.00   0.00     0.01   0.01  -0.01    -0.00   0.00   0.00
  20   1     0.00  -0.01  -0.00    -0.00   0.00   0.00    -0.01  -0.01   0.00
  21   1    -0.01  -0.00   0.01     0.21   0.23   0.49     0.01   0.02   0.03
  22   1    -0.01   0.08  -0.02     0.40   0.37  -0.12     0.02   0.03  -0.01
  23   1     0.16   0.34   0.04     0.06   0.24   0.09     0.01   0.02   0.01
  24   1     0.18   0.02   0.05     0.25   0.00   0.08     0.03   0.00   0.01
  25   1    -0.09  -0.30   0.01     0.01   0.06  -0.01    -0.00   0.00  -0.00
  26   1    -0.01  -0.08  -0.08     0.00   0.03   0.03    -0.00  -0.00  -0.01
                     55                     56                     57
                        a                      a                      a 
 Frequencies --  1484.8805              1507.1223              1560.4799
 Red. masses --     2.2989                 3.6608                 2.0741
 Frc consts  --     0.0000                 0.0000                 0.0000
 IR Inten    --    17.2529               155.7123                39.0248
 Raman Activ --     0.0000                 0.0000                 0.0000
 Depolar     --     0.0000                 0.0000                 0.0000
 Atom AN      X      Y      Z        X      Y      Z        X      Y      Z
   1   6     0.03  -0.19   0.11    -0.01  -0.04   0.02     0.00  -0.00  -0.01
   2   6     0.15  -0.03  -0.11     0.02   0.01  -0.02    -0.01   0.01   0.00
   3   6     0.01   0.04   0.01     0.00  -0.01   0.00     0.09  -0.04   0.02
   4   6     0.00  -0.01  -0.00    -0.01   0.03  -0.00    -0.01   0.02  -0.00
   5   8    -0.00   0.00   0.00     0.00  -0.00  -0.00     0.00  -0.00   0.00
   6   8    -0.00   0.00  -0.00     0.00  -0.01   0.01     0.00  -0.00   0.00
   7   7     0.00  -0.01  -0.01    -0.00   0.00  -0.00    -0.09  -0.24   0.10
   8   6    -0.04  -0.04  -0.02    -0.12  -0.04  -0.05    -0.00   0.00  -0.00
   9   7    -0.05   0.02  -0.00     0.12  -0.06  -0.01     0.00  -0.00   0.00
  10   6     0.10  -0.00   0.00    -0.26   0.06  -0.00    -0.00  -0.01   0.00
  11   7    -0.08  -0.06  -0.02     0.24   0.19   0.06     0.00   0.00   0.00
  12   7    -0.02   0.01  -0.00     0.05  -0.07   0.00    -0.00   0.01  -0.00
  13   1    -0.06   0.48   0.01    -0.01   0.05   0.00     0.01   0.01  -0.00
  14   1    -0.07   0.13  -0.45    -0.00   0.01  -0.05    -0.01  -0.00   0.00
  15   1    -0.07  -0.00   0.40    -0.01  -0.01   0.06    -0.00   0.01   0.01
  16   1    -0.40   0.11   0.05    -0.06   0.01   0.00    -0.01  -0.02   0.00
  17   1    -0.02  -0.05  -0.00     0.00   0.00   0.00    -0.07  -0.03   0.01
  18   1     0.00   0.00  -0.01    -0.00  -0.01   0.01     0.00   0.00   0.00
  19   1    -0.01  -0.01   0.01     0.00  -0.00   0.01     0.08   0.31  -0.58
  20   1     0.00   0.00  -0.00     0.00  -0.01  -0.00     0.08   0.67   0.11
  21   1     0.05   0.04   0.11     0.21   0.05   0.31     0.00  -0.00   0.00
  22   1     0.10   0.07  -0.03     0.26   0.21  -0.07     0.00  -0.00  -0.00
  23   1     0.03   0.13   0.05    -0.11  -0.43  -0.15    -0.00  -0.01  -0.00
  24   1     0.14   0.00   0.04    -0.51  -0.02  -0.15    -0.01   0.00  -0.00
  25   1     0.01   0.03  -0.00    -0.01  -0.07   0.01    -0.00   0.00  -0.00
  26   1    -0.00   0.01   0.01     0.00  -0.02  -0.02     0.00   0.00  -0.00
                     58                     59                     60
                        a                      a                      a 
 Frequencies --  1651.4537              2840.1104              2931.2726
 Red. masses --    11.9357                 1.7627                 1.6624
 Frc consts  --     0.0000                 0.0000                 0.0000
 IR Inten    --   401.6168                55.5853                34.0272
 Raman Activ --     0.0000                 0.0000                 0.0000
 Depolar     --     0.0000                 0.0000                 0.0000
 Atom AN      X      Y      Z        X      Y      Z        X      Y      Z
   1   6    -0.00   0.00  -0.00    -0.00   0.01   0.00    -0.01   0.01  -0.01
   2   6     0.00   0.00  -0.00     0.00  -0.00   0.00     0.00   0.00  -0.01
   3   6     0.00  -0.01   0.00     0.00  -0.00   0.00     0.00  -0.00   0.00
   4   6    -0.04   0.07  -0.01     0.00   0.00  -0.00     0.00   0.00   0.00
   5   8     0.01  -0.01   0.00    -0.00  -0.00   0.00    -0.00   0.00  -0.00
   6   8     0.01  -0.01   0.00     0.00   0.00   0.00    -0.00   0.00   0.00
   7   7    -0.00  -0.00   0.00    -0.00   0.00   0.00    -0.00   0.00  -0.00
   8   6     0.02   0.01   0.02    -0.01  -0.02  -0.26    -0.17  -0.13   0.11
   9   7     0.09  -0.12  -0.00     0.01  -0.02  -0.00    -0.00  -0.02  -0.00
  10   6    -0.15   0.78  -0.05    -0.01   0.00  -0.00    -0.00  -0.00  -0.00
  11   7    -0.08  -0.15  -0.02     0.00   0.00   0.00    -0.00   0.00  -0.00
  12   7     0.10  -0.49   0.03     0.00  -0.00   0.00     0.00   0.00   0.00
  13   1     0.00  -0.01  -0.00    -0.01   0.00  -0.04     0.00   0.00   0.04
  14   1     0.00  -0.00   0.01     0.00  -0.02  -0.00     0.00  -0.03  -0.01
  15   1     0.00  -0.00  -0.00    -0.00   0.00  -0.00    -0.00  -0.00  -0.00
  16   1     0.00  -0.00  -0.00    -0.00  -0.00  -0.01     0.00  -0.00   0.02
  17   1     0.00   0.00   0.00     0.00   0.00  -0.01    -0.00   0.00  -0.02
  18   1    -0.01  -0.02   0.06    -0.00  -0.00  -0.00     0.00  -0.00  -0.00
  19   1     0.00   0.00  -0.01     0.00  -0.00  -0.00     0.00   0.00  -0.00
  20   1     0.00   0.01   0.00    -0.00  -0.00  -0.00     0.00   0.00   0.00
  21   1    -0.01   0.01  -0.00    -0.08  -0.06   0.02     0.63   0.50  -0.52
  22   1    -0.01   0.02  -0.00     0.11   0.18   0.93    -0.02   0.00   0.13
  23   1     0.05   0.16   0.03     0.00  -0.00  -0.00     0.00   0.00   0.00
  24   1     0.04  -0.03   0.04     0.00   0.00   0.00     0.01  -0.00  -0.00
  25   1     0.04  -0.11   0.01     0.00   0.00  -0.00    -0.00   0.00   0.00
  26   1     0.01  -0.07  -0.06     0.00   0.00   0.00     0.00  -0.00   0.00
                     61                     62                     63
                        a                      a                      a 
 Frequencies --  2939.4584              2980.5880              2988.4541
 Red. masses --     1.7364                 1.9278                 1.6807
 Frc consts  --     0.0000                 0.0000                 0.0000
 IR Inten    --    29.1367                23.7552                21.4655
 Raman Activ --     0.0000                 0.0000                 0.0000
 Depolar     --     0.0000                 0.0000                 0.0000
 Atom AN      X      Y      Z        X      Y      Z        X      Y      Z
   1   6    -0.00  -0.01  -0.01    -0.02   0.18   0.20    -0.03   0.15  -0.04
   2   6    -0.01   0.00  -0.02    -0.02   0.01  -0.10     0.07  -0.02   0.17
   3   6     0.02  -0.02   0.25     0.00  -0.00  -0.00     0.00  -0.00   0.02
   4   6     0.00  -0.00   0.01     0.00  -0.00   0.00    -0.00   0.00   0.00
   5   8    -0.00   0.00  -0.00     0.00  -0.00  -0.00     0.00  -0.00  -0.00
   6   8    -0.00   0.00  -0.00    -0.00   0.00   0.00     0.00  -0.00  -0.00
   7   7    -0.00  -0.00   0.00     0.00   0.00   0.00    -0.00  -0.00  -0.00
   8   6     0.00   0.00  -0.00     0.00   0.01   0.01     0.00   0.01  -0.00
   9   7     0.00   0.00  -0.00    -0.00  -0.00  -0.00    -0.00  -0.00  -0.00
  10   6     0.00  -0.00   0.00     0.00   0.00   0.00     0.00   0.00   0.00
  11   7    -0.00  -0.00  -0.00    -0.00   0.00   0.00     0.00  -0.00   0.00
  12   7    -0.00   0.00  -0.00    -0.00   0.00  -0.00    -0.00  -0.00  -0.00
  13   1     0.00   0.00   0.03    -0.04   0.01  -0.51     0.02   0.03   0.36
  14   1    -0.00   0.02   0.01     0.10  -0.66  -0.21     0.09  -0.57  -0.22
  15   1     0.03  -0.01   0.00     0.02  -0.01  -0.01    -0.20   0.06  -0.02
  16   1     0.01  -0.01   0.09     0.04  -0.03   0.39    -0.06   0.04  -0.60
  17   1    -0.05   0.08  -0.96    -0.00  -0.00  -0.00    -0.00   0.01  -0.06
  18   1     0.00  -0.00   0.00     0.00  -0.00   0.00    -0.00   0.00  -0.00
  19   1    -0.00  -0.00  -0.00    -0.00  -0.00  -0.00    -0.00   0.00   0.00
  20   1    -0.00  -0.01   0.01    -0.00  -0.00  -0.00     0.00   0.00   0.00
  21   1    -0.01  -0.01   0.01    -0.00  -0.00   0.00    -0.02  -0.01   0.02
  22   1    -0.00  -0.00  -0.01    -0.00  -0.01  -0.03    -0.00  -0.00  -0.01
  23   1    -0.00  -0.00   0.00    -0.00  -0.00  -0.00    -0.00   0.00  -0.00
  24   1    -0.00  -0.00   0.00    -0.00  -0.00  -0.00    -0.00  -0.00  -0.00
  25   1     0.00   0.00   0.00     0.00  -0.00   0.00     0.00  -0.00  -0.00
  26   1     0.01  -0.00   0.00    -0.00   0.00  -0.00    -0.00   0.00  -0.00
                     64                     65                     66
                        a                      a                      a 
 Frequencies --  2996.3254              3010.0570              3169.8828
 Red. masses --     1.7064                 1.6568                 1.8653
 Frc consts  --     0.0000                 0.0000                 0.0000
 IR Inten    --    66.4721                38.6719               264.6923
 Raman Activ --     0.0000                 0.0000                 0.0000
 Depolar     --     0.0000                 0.0000                 0.0000
 Atom AN      X      Y      Z        X      Y      Z        X      Y      Z
   1   6     0.02  -0.04   0.18     0.01  -0.03   0.01    -0.00  -0.00   0.00
   2   6     0.02  -0.02   0.17     0.23  -0.07   0.01     0.00  -0.00  -0.00
   3   6     0.00  -0.00   0.02     0.01  -0.00   0.00     0.00  -0.00   0.00
   4   6     0.00  -0.00   0.00    -0.00   0.00  -0.00     0.01  -0.02  -0.01
   5   8    -0.00   0.00  -0.00    -0.00   0.00  -0.00     0.22  -0.08   0.04
   6   8    -0.00  -0.00  -0.00    -0.00   0.00   0.00    -0.01   0.01   0.00
   7   7    -0.00  -0.00  -0.00    -0.00   0.00   0.00    -0.00  -0.00  -0.00
   8   6    -0.01  -0.01   0.02    -0.00  -0.00   0.00    -0.00  -0.00   0.00
   9   7    -0.00   0.00  -0.00     0.00   0.00   0.00     0.01  -0.00   0.00
  10   6     0.00  -0.00   0.00    -0.00   0.00   0.00    -0.01   0.02  -0.00
  11   7    -0.00   0.00  -0.00     0.00   0.00  -0.00     0.00  -0.00   0.00
  12   7     0.00   0.00  -0.00     0.00  -0.00   0.00     0.00  -0.01  -0.00
  13   1    -0.05  -0.02  -0.72    -0.01  -0.01  -0.08     0.00  -0.00  -0.00
  14   1    -0.03   0.18   0.09    -0.02   0.11   0.04    -0.00   0.00   0.00
  15   1    -0.02   0.00   0.02    -0.87   0.29  -0.21    -0.00   0.00  -0.00
  16   1    -0.07   0.04  -0.60     0.05  -0.02   0.17     0.00  -0.00   0.00
  17   1    -0.00   0.01  -0.08    -0.00   0.00  -0.01    -0.00   0.00  -0.01
  18   1    -0.00   0.00  -0.00     0.00  -0.00  -0.00     0.03  -0.02   0.01
  19   1     0.00   0.00   0.00     0.00  -0.00  -0.00     0.00   0.00   0.00
  20   1     0.00   0.00   0.00     0.00  -0.00  -0.00     0.00  -0.00  -0.00
  21   1     0.03   0.03  -0.03     0.00   0.00  -0.00     0.00   0.00  -0.00
  22   1    -0.00  -0.01  -0.03    -0.00  -0.00  -0.00    -0.00  -0.00   0.00
  23   1     0.00  -0.00   0.00    -0.00  -0.00   0.00    -0.00   0.00  -0.00
  24   1    -0.00  -0.00   0.00    -0.00   0.00   0.00    -0.00  -0.00  -0.00
  25   1    -0.00   0.00   0.00    -0.00   0.00  -0.00    -0.01  -0.01  -0.00
  26   1     0.00  -0.00   0.00     0.01  -0.00   0.00    -0.89   0.37  -0.13
                     67                     68                     69
                        a                      a                      a 
 Frequencies --  3384.0113              3405.9943              3412.3425
 Red. masses --     1.5398                 1.8679                 2.0469
 Frc consts  --     0.0000                 0.0000                 0.0000
 IR Inten    --     6.8160                15.9562                 1.4146
 Raman Activ --     0.0000                 0.0000                 0.0000
 Depolar     --     0.0000                 0.0000                 0.0000
 Atom AN      X      Y      Z        X      Y      Z        X      Y      Z
   1   6     0.00  -0.00   0.00     0.00   0.00  -0.00     0.00  -0.00  -0.00
   2   6    -0.00   0.00   0.00     0.00  -0.00   0.00    -0.00  -0.00   0.00
   3   6     0.00  -0.01   0.01     0.00  -0.00  -0.00     0.00  -0.00  -0.01
   4   6     0.00  -0.00   0.00     0.00   0.00  -0.00    -0.00   0.00  -0.00
   5   8    -0.00   0.00  -0.00    -0.00  -0.00  -0.00    -0.00   0.00  -0.00
   6   8     0.00  -0.00   0.00    -0.02   0.01  -0.00    -0.01   0.01  -0.00
   7   7     0.02  -0.14   0.14     0.00  -0.00  -0.00     0.02  -0.16  -0.23
   8   6    -0.00  -0.00   0.00    -0.00  -0.00  -0.00     0.00  -0.00  -0.00
   9   7     0.00  -0.00  -0.00     0.00   0.00   0.00    -0.00   0.00   0.00
  10   6     0.00   0.00   0.00    -0.01  -0.01  -0.00     0.00  -0.00   0.00
  11   7     0.00   0.00   0.00     0.00  -0.00  -0.00    -0.00   0.00  -0.00
  12   7     0.00  -0.00   0.00    -0.24   0.08  -0.03     0.00  -0.00   0.00
  13   1     0.00   0.00  -0.00     0.00  -0.00   0.00    -0.00  -0.00   0.00
  14   1    -0.00   0.00  -0.00    -0.00   0.00   0.00    -0.00   0.00   0.00
  15   1    -0.00   0.00   0.00    -0.00   0.00  -0.00    -0.00   0.00  -0.00
  16   1    -0.00  -0.00  -0.00     0.00  -0.00  -0.00     0.00   0.00   0.01
  17   1    -0.00  -0.00  -0.01    -0.00  -0.00   0.00     0.00   0.00   0.01
  18   1    -0.01   0.01  -0.00     0.10  -0.06   0.01     0.04  -0.02   0.01
  19   1    -0.05   0.45   0.28    -0.00   0.01   0.00    -0.10   0.71   0.38
  20   1    -0.05   0.10  -0.82     0.00  -0.00  -0.00     0.04  -0.10   0.50
  21   1     0.00   0.00  -0.00     0.00  -0.00   0.00    -0.00  -0.00   0.00
  22   1     0.00   0.00  -0.00     0.00  -0.00  -0.00     0.00   0.00   0.00
  23   1    -0.00   0.00  -0.00    -0.00   0.00  -0.00     0.00  -0.00   0.00
  24   1     0.00  -0.00  -0.00    -0.00   0.01   0.00     0.00  -0.00  -0.00
  25   1    -0.00   0.00  -0.00     0.91  -0.27   0.10    -0.01   0.00  -0.00
  26   1     0.00  -0.00   0.00     0.00   0.00   0.00     0.00  -0.00   0.00
                     70                     71                     72
                        a                      a                      a 
 Frequencies --  3427.8680              3476.1982              3535.7637
 Red. masses --     1.8619                 1.5065                 2.1040
 Frc consts  --     0.0000                 0.0000                 0.0000
 IR Inten    --    74.7782                 2.3656                 2.9960
 Raman Activ --     0.0000                 0.0000                 0.0000
 Depolar     --     0.0000                 0.0000                 0.0000
 Atom AN      X      Y      Z        X      Y      Z        X      Y      Z
   1   6     0.00   0.00  -0.00    -0.00  -0.00  -0.00     0.00   0.00   0.00
   2   6    -0.00   0.00   0.00    -0.00  -0.00  -0.00    -0.00   0.00  -0.00
   3   6    -0.00   0.00  -0.00     0.00   0.00  -0.00    -0.00   0.00   0.00
   4   6    -0.00   0.01  -0.01     0.00   0.00  -0.00    -0.00  -0.00  -0.00
   5   8    -0.01   0.00  -0.00    -0.00   0.00  -0.00    -0.00   0.00  -0.00
   6   8    -0.20   0.12  -0.03    -0.00   0.00  -0.00    -0.00   0.00  -0.00
   7   7     0.00   0.01   0.01     0.00   0.00  -0.00     0.00  -0.00   0.00
   8   6    -0.00   0.00  -0.00    -0.00  -0.00  -0.00     0.00  -0.00   0.00
   9   7    -0.00   0.00   0.00    -0.00   0.00  -0.00    -0.00  -0.00  -0.00
  10   6     0.01  -0.01   0.00     0.01   0.00   0.00     0.01  -0.01  -0.00
  11   7    -0.00   0.00  -0.00     0.17   0.04   0.09     0.15  -0.25  -0.03
  12   7     0.03  -0.01   0.00    -0.00  -0.00  -0.00     0.00   0.00   0.00
  13   1     0.00   0.00   0.00     0.00   0.00  -0.00    -0.00   0.00  -0.00
  14   1     0.00  -0.00  -0.00    -0.00   0.00   0.00     0.00  -0.00  -0.00
  15   1     0.00  -0.00   0.00     0.00   0.00   0.00     0.00  -0.00   0.00
  16   1    -0.00  -0.00  -0.00    -0.00  -0.00   0.00    -0.00   0.00   0.00
  17   1    -0.00  -0.00   0.00    -0.00   0.00   0.00    -0.00  -0.00  -0.00
  18   1     0.81  -0.50   0.14     0.01  -0.01   0.00     0.01  -0.00   0.00
  19   1     0.00  -0.03  -0.01     0.00  -0.00  -0.00    -0.00   0.00   0.00
  20   1    -0.00   0.01  -0.04     0.00  -0.00   0.00    -0.00   0.00  -0.00
  21   1    -0.00  -0.00   0.00    -0.00   0.00  -0.00     0.00   0.00   0.00
  22   1     0.00   0.00  -0.00    -0.00   0.00   0.00     0.00   0.00  -0.00
  23   1     0.01  -0.01   0.00    -0.75   0.33  -0.20    -0.43   0.16  -0.13
  24   1     0.00  -0.00   0.00     0.11  -0.47  -0.13    -0.14   0.78   0.25
  25   1    -0.11   0.03  -0.01     0.00   0.00   0.00    -0.01   0.01  -0.00
  26   1     0.04  -0.01   0.00     0.01  -0.00   0.00     0.00  -0.00   0.00
