      -----------------------------------------------------------      
     |                   =====================                   |     
     |                           x T B                           |     
     |                   =====================                   |     
     |                         S. Grimme                         |     
     |          Mulliken Center for Theoretical Chemistry        |     
     |                    University of Bonn                     |     
      -----------------------------------------------------------      

   * xtb version 6.6.0 (8843059) compiled by 'stahn@majestix' on 2023-02-09

   xtb is free software: you can redistribute it and/or modify it under
   the terms of the GNU Lesser General Public License as published by
   the Free Software Foundation, either version 3 of the License, or
   (at your option) any later version.
   
   xtb is distributed in the hope that it will be useful,
   but WITHOUT ANY WARRANTY; without even the implied warranty of
   MERCHANTABILITY or FITNESS FOR A PARTICULAR PURPOSE.  See the
   GNU Lesser General Public License for more details.
   
   Cite this work as:
   * C. Bannwarth, E. Caldeweyher, S. Ehlert, A. Hansen, P. Pracht,
     J. Seibert, S. Spicher, S. Grimme, WIREs Comput. Mol. Sci., 2020, 11,
     e01493. DOI: 10.1002/wcms.1493
   
   for GFN2-xTB:
   * C. Bannwarth, S. Ehlert and S. Grimme., J. Chem. Theory Comput., 2019,
     15, 1652-1671. DOI: 10.1021/acs.jctc.8b01176
   for GFN1-xTB:
   * S. Grimme, C. Bannwarth, P. Shushkov, J. Chem. Theory Comput., 2017,
     13, 1989-2009. DOI: 10.1021/acs.jctc.7b00118
   for GFN0-xTB:
   * P. Pracht, E. Caldeweyher, S. Ehlert, S. Grimme, ChemRxiv, 2019, preprint.
     DOI: 10.26434/chemrxiv.8326202.v1
   for GFN-FF:
   * S. Spicher and S. Grimme, Angew. Chem. Int. Ed., 2020, 59, 15665-15673.
     DOI: 10.1002/anie.202004239
   
   for ALPB and GBSA implicit solvation:
   * S. Ehlert, M. Stahn, S. Spicher, S. Grimme, J. Chem. Theory Comput.,
     2021, 17, 4250-4261. DOI: 10.1021/acs.jctc.1c00471
   
   for DFT-D4:
   * E. Caldeweyher, C. Bannwarth and S. Grimme, J. Chem. Phys., 2017,
     147, 034112. DOI: 10.1063/1.4993215
   * E. Caldeweyher, S. Ehlert, A. Hansen, H. Neugebauer, S. Spicher,
     C. Bannwarth and S. Grimme, J. Chem. Phys., 2019, 150, 154122.
     DOI: 10.1063/1.5090222
   * E. Caldeweyher, J.-M. Mewes, S. Ehlert and S. Grimme, Phys. Chem. Chem. Phys.
     2020, 22, 8499-8512. DOI: 10.1039/D0CP00502A
   
   for sTDA-xTB:
   * S. Grimme and C. Bannwarth, J. Chem. Phys., 2016, 145, 054103.
     DOI: 10.1063/1.4959605
   
   in the mass-spec context:
   * V. Asgeirsson, C. Bauer and S. Grimme, Chem. Sci., 2017, 8, 4879.
     DOI: 10.1039/c7sc00601b
   * J. Koopman and S. Grimme, ACS Omega 2019, 4, 12, 15120-15133.
     DOI: 10.1021/acsomega.9b02011
   
   for metadynamics refer to:
   * S. Grimme, J. Chem. Theory Comput., 2019, 155, 2847-2862
     DOI: 10.1021/acs.jctc.9b00143
   
   for SPH calculations refer to:
   * S. Spicher and S. Grimme, J. Chem. Theory Comput., 2021, 17, 1701-1714
     DOI: 10.1021/acs.jctc.0c01306
   
   with help from (in alphabetical order)
   P. Atkinson, C. Bannwarth, F. Bohle, G. Brandenburg, E. Caldeweyher
   M. Checinski, S. Dohm, S. Ehlert, S. Ehrlich, I. Gerasimov, C. Hölzer
   A. Katbashev, J. Koopman, C. Lavigne, S. Lehtola, F. März, M. Müller,
   F. Musil, H. Neugebauer, J. Pisarek, C. Plett, P. Pracht, F. Pultar,
   J. Seibert, P. Shushkov, S. Spicher, M. Stahn, M. Steiner, T. Strunk,
   J. Stückrath, T. Rose, and J. Unsleber
   
 * started run on 2025/07/30 at 12:34:47.603     

           -------------------------------------------------
          |                Calculation Setup                |
           -------------------------------------------------

          program call               : xtb --gfn2 in.xyz --ohess vtight
          coordinate file            : in.xyz
          omp threads                :                     8

   ID    Z sym.   atoms
    1    6 C      1-4, 8, 10
    2    8 O      5, 6
    3    7 N      7, 9, 11, 12
    4    1 H      13-26

           -------------------------------------------------
          |                 G F N 2 - x T B                 |
           -------------------------------------------------

        Reference                      10.1021/acs.jctc.8b01176
      * Hamiltonian:
        H0-scaling (s, p, d)           1.850000    2.230000    2.230000
        zeta-weighting                 0.500000
      * Dispersion:
        s8                             2.700000
        a1                             0.520000
        a2                             5.000000
        s9                             5.000000
      * Repulsion:
        kExp                           1.500000    1.000000
        rExp                           1.000000
      * Coulomb:
        alpha                          2.000000
        third order                    shell-resolved
        anisotropic                    true
        a3                             3.000000
        a5                             4.000000
        cn-shift                       1.200000
        cn-exp                         4.000000
        max-rad                        5.000000


          ...................................................
          :                      SETUP                      :
          :.................................................:
          :  # basis functions                  62          :
          :  # atomic orbitals                  62          :
          :  # shells                           38          :
          :  # electrons                        70          :
          :  max. iterations                   250          :
          :  Hamiltonian                  GFN2-xTB          :
          :  restarted?                      false          :
          :  GBSA solvation                  false          :
          :  PC potential                    false          :
          :  electronic temp.          300.0000000     K    :
          :  accuracy                    1.0000000          :
          :  -> integral cutoff          0.2500000E+02      :
          :  -> integral neglect         0.1000000E-07      :
          :  -> SCF convergence          0.1000000E-05 Eh   :
          :  -> wf. convergence          0.1000000E-03 e    :
          :  Broyden damping             0.4000000          :
          ...................................................

 iter      E             dE          RMSdq      gap      omega  full diag
   1    -40.1992543 -0.401993E+02  0.373E+00    4.93       0.0  T
   2    -40.2455019 -0.462476E-01  0.211E+00    5.17       1.0  T
   3    -40.2478916 -0.238970E-02  0.753E-01    4.64       1.0  T
   4    -40.2491905 -0.129887E-02  0.194E-01    4.62       1.0  T
   5    -40.2493549 -0.164436E-03  0.721E-02    4.59       1.0  T
   6    -40.2493929 -0.380443E-04  0.349E-02    4.62       1.0  T
   7    -40.2493948 -0.181537E-05  0.914E-03    4.62       2.1  T
   8    -40.2493954 -0.646040E-06  0.294E-03    4.62       6.7  T
   9    -40.2493954 -0.277914E-07  0.139E-03    4.62      14.1  T
  10    -40.2493954 -0.385283E-08  0.420E-04    4.62      46.7  T
  11    -40.2493954 -0.827683E-09  0.136E-04    4.62     144.1  T

   *** convergence criteria satisfied after 11 iterations ***

         #    Occupation            Energy/Eh            Energy/eV
      -------------------------------------------------------------
         1        2.0000           -0.6988008             -19.0153
       ...           ...                  ...                  ...
        29        2.0000           -0.4333636             -11.7924
        30        2.0000           -0.4290435             -11.6749
        31        2.0000           -0.4236589             -11.5283
        32        2.0000           -0.4075084             -11.0889
        33        2.0000           -0.3857573             -10.4970
        34        2.0000           -0.3756518             -10.2220
        35        2.0000           -0.3591756              -9.7737 (HOMO)
        36                         -0.1892800              -5.1506 (LUMO)
        37                         -0.0277156              -0.7542
        38                          0.0176493               0.4803
        39                          0.0316512               0.8613
        40                          0.0567507               1.5443
       ...                                ...                  ...
        62                          0.5423254              14.7574
      -------------------------------------------------------------
                  HL-Gap            0.1698956 Eh            4.6231 eV
             Fermi-level           -0.2742278 Eh           -7.4621 eV

 SCC (total)                   0 d,  0 h,  0 min,  0.027 sec
 SCC setup                      ...        0 min,  0.000 sec (  1.109%)
 Dispersion                     ...        0 min,  0.000 sec (  1.172%)
 classical contributions        ...        0 min,  0.000 sec (  0.476%)
 integral evaluation            ...        0 min,  0.002 sec (  6.291%)
 iterations                     ...        0 min,  0.018 sec ( 66.054%)
 molecular gradient             ...        0 min,  0.006 sec ( 24.087%)
 printout                       ...        0 min,  0.000 sec (  0.681%)

         :::::::::::::::::::::::::::::::::::::::::::::::::::::
         ::                     SUMMARY                     ::
         :::::::::::::::::::::::::::::::::::::::::::::::::::::
         :: total energy             -39.831859292195 Eh    ::
         :: gradient norm              0.000165348897 Eh/a0 ::
         :: HOMO-LUMO gap              4.623095047449 eV    ::
         ::.................................................::
         :: SCC energy               -40.249395436741 Eh    ::
         :: -> isotropic ES            0.099622718335 Eh    ::
         :: -> anisotropic ES         -0.004860343709 Eh    ::
         :: -> anisotropic XC          0.014670952154 Eh    ::
         :: -> dispersion             -0.023004732815 Eh    ::
         :: repulsion energy           0.417332170814 Eh    ::
         :: add. restraining           0.000000000000 Eh    ::
         :: total charge               0.000000000000 e     ::
         :::::::::::::::::::::::::::::::::::::::::::::::::::::

      ----------------------------------------------------------- 
     |                   =====================                   |
     |                        A N C O P T                        |
     |                   =====================                   |
     |               Approximate Normal Coordinate               |
     |                Rational Function Optimizer                |
      ----------------------------------------------------------- 

          ...................................................
          :                      SETUP                      :
          :.................................................:
          :   optimization level         verytight          :
          :   max. optcycles                   520          :
          :   ANC micro-cycles                  20          :
          :   degrees of freedom                72          :
          :.................................................:
          :   RF solver                   davidson          :
          :   write xtbopt.log                true          :
          :   linear?                        false          :
          :   energy convergence         0.1000000E-06 Eh   :
          :   grad. convergence          0.2000000E-03 Eh/α :
          :   maxmium RF displ.          1.0000000          :
          :   Hlow (freq-cutoff)         0.1000000E-01      :
          :   Hmax (freq-cutoff)         5.0000000          :
          :   S6 in model hess.         20.0000000          :
          ...................................................

generating ANC from model Hessian ...
Using Lindh-Hessian (1995)
 Shifting diagonal of input Hessian by   7.569519519550649E-003
 Lowest  eigenvalues of input Hessian
    0.000000    0.000000    0.000000    0.000000    0.000000    0.000000
    0.010000    0.012101    0.013712    0.014913    0.017180    0.020105
    0.021412    0.024265    0.026584    0.029324    0.030838    0.033643
 Highest eigenvalues
    1.477753    1.525480    1.587879    1.659895    2.064290    2.241942
 

........................................................................
.............................. CYCLE    1 ..............................
........................................................................

 iter      E             dE          RMSdq      gap      omega  full diag
   1    -40.2493954 -0.402494E+02  0.606E-05    4.62       0.0  T
   2    -40.2493954 -0.697753E-11  0.365E-05    4.62     536.8  T
   3    -40.2493954 -0.490274E-12  0.129E-05    4.62    1517.6  T
     SCC iter.                  ...        0 min,  0.006 sec
     gradient                   ...        0 min,  0.005 sec
 * total energy  :   -39.8318593 Eh     change       -0.6587442E-10 Eh
   gradient norm :     0.0001645 Eh/α   predicted     0.0000000E+00 (-100.00%)
   displ. norm   :     0.0018194 α      lambda       -0.2431060E-07
   maximum displ.:     0.0008487 α      in ANC's #4, #2, #5, ...

   *** GEOMETRY OPTIMIZATION CONVERGED AFTER 1 ITERATIONS ***

------------------------------------------------------------------------
 total energy gain   :        -0.0000000 Eh       -0.0000 kcal/mol
 total RMSD          :         0.0000000 a0        0.0000 Å
 total power (kW/mol):        -0.0000002 (step)   -0.0000 (real)
------------------------------------------------------------------------

 ANCopt (total)                0 d,  0 h,  0 min,  0.042 sec
 optimizer setup                ...        0 min,  0.000 sec (  0.366%)
 model hessian                  ...        0 min,  0.029 sec ( 68.226%)
 ANC generation                 ...        0 min,  0.001 sec (  1.924%)
 coordinate transformation      ...        0 min,  0.000 sec (  0.031%)
 single point calculation       ...        0 min,  0.012 sec ( 28.591%)
 optimization log               ...        0 min,  0.000 sec (  0.349%)
 hessian update                 ...        0 min,  0.000 sec (  0.005%)
 rational function              ...        0 min,  0.000 sec (  0.228%)

================
 final structure:
================
26
 xtb: 6.6.0 (8843059)
C           -0.96878000000000        2.22546600000000       -0.35711800000000
C           -2.00152900000000        1.28219600000000        0.23392600000000
C           -1.78576500000000       -0.08765100000000       -0.39014300000000
C           -0.37000700000000       -0.63614000000000       -0.06860700000000
O           -0.14573000000000       -1.64222100000000       -0.98491300000000
O           -0.37948000000000       -1.12524600000000        1.24200100000000
N           -2.81894100000000       -1.01095000000000        0.02441800000000
C            0.43248300000000        1.79150500000000        0.05323900000000
N            0.69935100000000        0.38084200000000       -0.18798800000000
C            1.96943100000000       -0.08953600000000        0.03660400000000
N            2.99608900000000        0.82658400000000        0.09061900000000
N            2.16884500000000       -1.35716400000000        0.12178200000000
H           -1.05358100000000        2.21573700000000       -1.44493700000000
H           -1.12361900000000        3.24815200000000       -0.00926700000000
H           -3.01546100000000        1.61305200000000        0.01286900000000
H           -1.88507000000000        1.21069800000000        1.31662100000000
H           -1.83540800000000       -0.00420600000000       -1.48141900000000
H            0.44800100000000       -1.61859200000000        1.35616900000000
H           -2.67022200000000       -1.90062300000000       -0.44108000000000
H           -2.72727800000000       -1.17830600000000        1.02243300000000
H            1.15215700000000        2.37519000000000       -0.52956800000000
H            0.56741200000000        2.01637500000000        1.12366400000000
H            3.89201000000000        0.44923800000000        0.35473500000000
H            2.82582700000000        1.76544200000000        0.40290300000000
H            3.14285200000000       -1.61329500000000        0.23288200000000
H            0.76216500000000       -1.97523800000000       -0.81133900000000
 
 Bond Distances (Angstroems)
 ---------------------------
C1-C2=1.5184         C1-C8=1.5232         C1-H13=1.0912        C1-H14=1.0913        C2-C1=1.5184         C2-C3=1.5207         
C2-H15=1.0892        C2-H16=1.0913        C3-C2=1.5207         C3-C4=1.5520         C3-N7=1.4463         C3-H17=1.0956        
C4-C3=1.5520         C4-O5=1.3792         C4-O6=1.3989         C4-N9=1.4806         O5-C4=1.3792         O5-H26=0.9825        
O6-C4=1.3989         O6-H18=0.9701        N7-C3=1.4463         N7-H19=1.0150        N7-H20=1.0161        C8-C1=1.5232         
C8-N9=1.4558         C8-H21=1.0947        C8-H22=1.1021        N9-C4=1.4806         N9-C8=1.4558         N9-C10=1.3729        
C10-N9=1.3729        C10-N11=1.3770       C10-N12=1.2860       N11-C10=1.3770       N11-H23=1.0074       N11-H24=1.0040       
N12-C10=1.2860       N12-H25=1.0132       H13-C1=1.0912        H14-C1=1.0913        H15-C2=1.0892        H16-C2=1.0913        
H17-C3=1.0956        H18-O6=0.9701        H19-N7=1.0150        H20-N7=1.0161        H21-C8=1.0947        H22-C8=1.1021        
H23-N11=1.0074       H24-N11=1.0040       H25-N12=1.0132       H26-O5=0.9825        
 C  H  Rav=1.0936 sigma=0.0040  Rmin=1.0892  Rmax=1.1021     7
 C  C  Rav=1.5286 sigma=0.0136  Rmin=1.5184  Rmax=1.5520     4
 N  H  Rav=1.0111 sigma=0.0047  Rmin=1.0040  Rmax=1.0161     5
 N  C  Rav=1.4031 sigma=0.0658  Rmin=1.2860  Rmax=1.4806     6
 O  H  Rav=0.9763 sigma=0.0062  Rmin=0.9701  Rmax=0.9825     2
 O  C  Rav=1.3891 sigma=0.0099  Rmin=1.3792  Rmax=1.3989     2
 
 selected bond angles (degree)
 --------------------
C8-C1-C2=110.11                H13-C1-C2=109.25               H13-C1-C8=109.73               H14-C1-C2=111.20               
H14-C1-C8=108.16               H14-C1-H13=108.37              C3-C2-C1=107.66                H15-C2-C1=111.43               
H15-C2-C3=108.81               H16-C2-C1=110.75               H16-C2-C3=109.45               H16-C2-H15=108.70              
C4-C3-C2=111.27                N7-C3-C2=110.86                N7-C3-C4=111.51                H17-C3-C2=109.50               
H17-C3-C4=105.94               H17-C3-N7=107.56               O5-C4-C3=105.58                O6-C4-C3=108.15                
O6-C4-O5=111.62                N9-C4-C3=113.54                N9-C4-O5=109.27                N9-C4-O6=108.70                
H26-O5-C4=106.27               H18-O6-C4=106.40               H19-N7-C3=108.87               H20-N7-C3=108.80               
H20-N7-H19=107.03              N9-C8-C1=113.58                H21-C8-C1=108.03               H21-C8-N9=107.94               
H22-C8-C1=108.43               H22-C8-N9=109.65               H22-C8-H21=109.14              C8-N9-C4=121.32                
C10-N9-C4=114.81               C10-N9-C8=118.33               N11-C10-N9=117.92              N12-C10-N9=119.47              
N12-C10-N11=122.52             
 
 selected dihedral angles (degree)
 ---------------------------------
C3-C2-C1-C8=295.19            C3-C2-C1-H13= 55.76           C3-C2-C1-H14=175.33           H15-C2-C1-C8=175.95           
H15-C2-C1-H13=296.52          H15-C2-C1-H14= 56.09          H16-C2-C1-C8= 54.82           H16-C2-C1-H13=175.39          
H16-C2-C1-H14=294.95          C4-C3-C2-C1= 61.01            C4-C3-C2-H15=181.92           C4-C3-C2-H16=300.57           
N7-C3-C2-C1=185.72            N7-C3-C2-H15=306.62           N7-C3-C2-H16= 65.28           H17-C3-C2-C1=304.24           
H17-C3-C2-H15= 65.14          H17-C3-C2-H16=183.80          O5-C4-C3-C2=197.64            O5-C4-C3-N7= 73.30            
O5-C4-C3-H17=316.56           O6-C4-C3-C2= 78.04            O6-C4-C3-N7=313.70            O6-C4-C3-H17=196.96           
N9-C4-C3-C2=317.32            N9-C4-C3-N7=192.98            N9-C4-C3-H17= 76.25           H26-O5-C4-C3=177.99           
H26-O5-C4-O6=295.27           H26-O5-C4-N9= 55.53           H18-O6-C4-C3=168.81           H18-O6-C4-O5= 53.10           
H18-O6-C4-N9=292.50           H19-N7-C3-C2=177.46           H19-N7-C3-C4=302.04           H19-N7-C3-H17= 57.78          
H20-N7-C3-C2=293.78           H20-N7-C3-C4= 58.35           H20-N7-C3-H17=174.09          N9-C8-C1-C2= 50.25            
N9-C8-C1-H13=289.97           N9-C8-C1-H14=171.94           H21-C8-C1-C2=169.94           H21-C8-C1-H13= 49.66          
H21-C8-C1-H14=291.64          H22-C8-C1-C2=288.10           H22-C8-C1-H13=167.82          H22-C8-C1-H14= 49.79          
C8-N9-C4-C3= 29.30            C8-N9-C4-O5=146.85            C8-N9-C4-O6=268.89            C10-N9-C4-C3=182.58           
C10-N9-C4-O5=300.14           C10-N9-C4-O6= 62.17           C4-N9-C8-C1=326.78            C4-N9-C8-H21=207.03           
C4-N9-C8-H22= 88.25           C10-N9-C8-C1=174.40           C10-N9-C8-H21= 54.65          C10-N9-C8-H22=295.87          
N11-C10-N9-C4=187.14          N11-C10-N9-C8=341.27          N12-C10-N9-C4= 10.55          N12-C10-N9-C8=164.68          
           -------------------------------------------------
          |                Final Singlepoint                |
           -------------------------------------------------

          ...................................................
          :                      SETUP                      :
          :.................................................:
          :  # basis functions                  62          :
          :  # atomic orbitals                  62          :
          :  # shells                           38          :
          :  # electrons                        70          :
          :  max. iterations                   250          :
          :  Hamiltonian                  GFN2-xTB          :
          :  restarted?                      false          :
          :  GBSA solvation                  false          :
          :  PC potential                    false          :
          :  electronic temp.          300.0000000     K    :
          :  accuracy                    1.0000000          :
          :  -> integral cutoff          0.2500000E+02      :
          :  -> integral neglect         0.1000000E-07      :
          :  -> SCF convergence          0.1000000E-05 Eh   :
          :  -> wf. convergence          0.1000000E-03 e    :
          :  Broyden damping             0.4000000          :
          ...................................................

 iter      E             dE          RMSdq      gap      omega  full diag
   1    -40.2493954 -0.402494E+02  0.338E-06    4.62       0.0  T
   2    -40.2493954 -0.113687E-12  0.191E-06    4.62   10293.7  T
   3    -40.2493954 -0.497380E-13  0.101E-06    4.62   19426.7  T

   *** convergence criteria satisfied after 3 iterations ***

         #    Occupation            Energy/Eh            Energy/eV
      -------------------------------------------------------------
         1        2.0000           -0.6987999             -19.0153
       ...           ...                  ...                  ...
        29        2.0000           -0.4333638             -11.7924
        30        2.0000           -0.4290432             -11.6749
        31        2.0000           -0.4236588             -11.5283
        32        2.0000           -0.4075079             -11.0889
        33        2.0000           -0.3857566             -10.4970
        34        2.0000           -0.3756511             -10.2220
        35        2.0000           -0.3591759              -9.7737 (HOMO)
        36                         -0.1892790              -5.1505 (LUMO)
        37                         -0.0277151              -0.7542
        38                          0.0176496               0.4803
        39                          0.0316516               0.8613
        40                          0.0567508               1.5443
       ...                                ...                  ...
        62                          0.5423264              14.7575
      -------------------------------------------------------------
                  HL-Gap            0.1698969 Eh            4.6231 eV
             Fermi-level           -0.2742275 Eh           -7.4621 eV

 SCC (total)                   0 d,  0 h,  0 min,  0.011 sec
 SCC setup                      ...        0 min,  0.000 sec (  0.967%)
 Dispersion                     ...        0 min,  0.000 sec (  0.984%)
 classical contributions        ...        0 min,  0.000 sec (  0.368%)
 integral evaluation            ...        0 min,  0.001 sec ( 11.283%)
 iterations                     ...        0 min,  0.005 sec ( 47.738%)
 molecular gradient             ...        0 min,  0.004 sec ( 37.160%)
 printout                       ...        0 min,  0.000 sec (  1.248%)

         :::::::::::::::::::::::::::::::::::::::::::::::::::::
         ::                     SUMMARY                     ::
         :::::::::::::::::::::::::::::::::::::::::::::::::::::
         :: total energy             -39.831859292262 Eh    ::
         :: gradient norm              0.000164414567 Eh/a0 ::
         :: HOMO-LUMO gap              4.623129693760 eV    ::
         ::.................................................::
         :: SCC energy               -40.249395436808 Eh    ::
         :: -> isotropic ES            0.099623674513 Eh    ::
         :: -> anisotropic ES         -0.004860131672 Eh    ::
         :: -> anisotropic XC          0.014671056620 Eh    ::
         :: -> dispersion             -0.023004731642 Eh    ::
         :: repulsion energy           0.417332170814 Eh    ::
         :: add. restraining           0.000000000000 Eh    ::
         :: total charge              -0.000000000000 e     ::
         :::::::::::::::::::::::::::::::::::::::::::::::::::::

           ------------------------------------------------- 
          |                Numerical Hessian                |
           ------------------------------------------------- 
step length          :   0.00500
SCC accuracy         :   0.30000
Hessian scale factor :   1.00000
frozen atoms in %    :   0.00000    0
RMS gradient         :   0.00016
estimated CPU  time      0.91 min
estimated wall time      0.12 min

writing file <hessian>.

 projected vibrational frequencies (cm⁻¹)
eigval :       -0.00    -0.00    -0.00     0.00     0.00     0.00
eigval :       50.82    73.11   111.31   148.51   228.85   259.22
eigval :      287.65   296.13   317.43   329.40   348.83   393.57
eigval :      404.73   443.24   460.55   487.12   498.12   518.68
eigval :      558.57   588.79   613.96   650.74   682.82   730.68
eigval :      747.35   875.10   888.66   930.35   958.44   992.56
eigval :     1007.28  1025.94  1035.00  1053.82  1076.68  1088.99
eigval :     1118.75  1138.37  1148.23  1171.37  1182.48  1201.83
eigval :     1232.65  1247.84  1263.97  1296.05  1312.42  1345.67
eigval :     1351.77  1365.24  1372.33  1411.35  1466.68  1475.52
eigval :     1484.88  1507.12  1560.48  1651.45  2840.11  2931.27
eigval :     2939.46  2980.59  2988.45  2996.33  3010.06  3169.88
eigval :     3384.01  3405.99  3412.34  3427.87  3476.20  3535.76
           -------------------------------------------------
          |                Property Printout                |
           -------------------------------------------------

    * Orbital Energies and Occupations

         #    Occupation            Energy/Eh            Energy/eV
      -------------------------------------------------------------
         1        2.0000           -0.6987999             -19.0153
       ...           ...                  ...                  ...
        23        2.0000           -0.4877458             -13.2722
        24        2.0000           -0.4833991             -13.1540
        25        2.0000           -0.4787886             -13.0285
        26        2.0000           -0.4548405             -12.3768
        27        2.0000           -0.4506341             -12.2624
        28        2.0000           -0.4405635             -11.9883
        29        2.0000           -0.4333638             -11.7924
        30        2.0000           -0.4290432             -11.6749
        31        2.0000           -0.4236588             -11.5283
        32        2.0000           -0.4075079             -11.0889
        33        2.0000           -0.3857566             -10.4970
        34        2.0000           -0.3756511             -10.2220
        35        2.0000           -0.3591759              -9.7737 (HOMO)
        36                         -0.1892790              -5.1505 (LUMO)
        37                         -0.0277151              -0.7542
        38                          0.0176496               0.4803
        39                          0.0316516               0.8613
        40                          0.0567508               1.5443
        41                          0.0720555               1.9607
        42                          0.0812805               2.2118
        43                          0.1047355               2.8500
        44                          0.1135943               3.0911
        45                          0.1164574               3.1690
        46                          0.1262777               3.4362
       ...                                ...                  ...
        62                          0.5423264              14.7575
      -------------------------------------------------------------
                  HL-Gap            0.1698969 Eh            4.6231 eV
             Fermi-level           -0.2742275 Eh           -7.4621 eV

     #   Z          covCN         q      C6AA      α(0)
     1   6 C        3.809    -0.067    21.772     6.642
     2   6 C        3.810    -0.072    21.869     6.657
     3   6 C        3.790     0.047    19.798     6.337
     4   6 C        3.602     0.325    16.227     5.825
     5   8 O        1.657    -0.470    22.260     6.369
     6   8 O        1.656    -0.472    22.294     6.374
     7   7 N        2.632    -0.340    28.762     7.965
     8   6 C        3.746     0.013    20.421     6.446
     9   7 N        2.742    -0.178    24.856     7.405
    10   6 C        2.757     0.239    23.000     7.853
    11   7 N        2.642    -0.307    27.917     7.847
    12   7 N        1.789    -0.463    33.190     8.533
    13   1 H        0.924     0.049     2.331     2.388
    14   1 H        0.924     0.046     2.373     2.409
    15   1 H        0.925     0.057     2.237     2.339
    16   1 H        0.924     0.051     2.307     2.375
    17   1 H        0.924     0.048     2.344     2.394
    18   1 H        0.804     0.314     0.679     1.295
    19   1 H        0.860     0.157     1.357     1.825
    20   1 H        0.860     0.157     1.354     1.823
    21   1 H        0.924     0.045     2.378     2.412
    22   1 H        0.923     0.028     2.612     2.527
    23   1 H        0.860     0.172     1.261     1.759
    24   1 H        0.860     0.169     1.281     1.773
    25   1 H        0.860     0.124     1.594     1.978
    26   1 H        0.803     0.329     0.641     1.258

 Mol. C6AA /au·bohr⁶  :       5784.890463
 Mol. C8AA /au·bohr⁸  :     123636.926879
 Mol. α(0) /au        :        112.806660


Wiberg/Mayer (AO) data.
largest (>0.10) Wiberg bond orders for each atom

 ---------------------------------------------------------------------------
     #   Z sym  total        # sym  WBO       # sym  WBO       # sym  WBO
 ---------------------------------------------------------------------------
     1   6 C    3.995 --     2 C    1.009     8 C    1.005    13 H    0.976
                            14 H    0.974
     2   6 C    3.995 --     1 C    1.009     3 C    0.995    16 H    0.974
                            15 H    0.974
     3   6 C    3.987 --     7 N    1.033     2 C    0.995    17 H    0.962
                             4 C    0.934
     4   6 C    3.920 --     5 O    1.018     6 O    0.981     3 C    0.934
                             9 N    0.914
     5   8 O    1.978 --     4 C    1.018    26 H    0.814
     6   8 O    1.974 --     4 C    0.981    18 H    0.863
     7   7 N    3.015 --     3 C    1.033    19 H    0.960    20 H    0.957
     8   6 C    3.978 --     1 C    1.005     9 N    0.986    22 H    0.967
                            21 H    0.966
     9   7 N    3.374 --    10 C    1.173     8 C    0.986     4 C    0.914
                            12 N    0.118
    10   6 C    3.962 --    12 N    1.594     9 N    1.173    11 N    1.148
    11   7 N    3.252 --    10 C    1.148    23 H    0.950    24 H    0.942
                            12 N    0.136
    12   7 N    2.948 --    10 C    1.594    25 H    0.952    11 N    0.136
                             9 N    0.118
    13   1 H    0.998 --     1 C    0.976
    14   1 H    0.997 --     1 C    0.974
    15   1 H    0.997 --     2 C    0.974
    16   1 H    0.997 --     2 C    0.974
    17   1 H    0.998 --     3 C    0.962
    18   1 H    0.901 --     6 O    0.863
    19   1 H    0.975 --     7 N    0.960
    20   1 H    0.975 --     7 N    0.957
    21   1 H    0.998 --     8 C    0.966
    22   1 H    0.999 --     8 C    0.967
    23   1 H    0.970 --    11 N    0.950
    24   1 H    0.972 --    11 N    0.942
    25   1 H    0.984 --    12 N    0.952
    26   1 H    0.892 --     5 O    0.814
 ---------------------------------------------------------------------------

Topologies differ in total number of bonds
Writing topology from bond orders to xtbtopo.mol

molecular dipole:
                 x           y           z       tot (Debye)
 q only:        0.620       1.160       0.257
   full:        1.731       1.303       0.687       5.777
molecular quadrupole (traceless):
                xx          xy          yy          xz          yz          zz
 q only:        3.109       1.201       2.002       2.072      -0.902      -5.111
  q+dip:        2.937       1.023       1.633       4.132      -0.958      -4.569
   full:        2.951       0.993       1.923       3.895      -0.877      -4.874

           -------------------------------------------------
          |                Geometry Summary                 |
           -------------------------------------------------

      molecular mass/u    :      174.2012086
   center of mass at/Å    :        0.0000037      -0.0000054       0.0000011
  moments of inertia/u·Å² :        0.3416091E+03   0.5863383E+03   0.8148632E+03
rotational constants/cm⁻¹ :        0.4934772E-01   0.2875069E-01   0.2068768E-01

 * 23 selected distances

     #   Z          #   Z                                           value/Å
     1   6 C        2   6 C                                       1.5184407
     2   6 C        3   6 C                                       1.5206898
     4   6 C        5   8 O                                       1.3791723
     4   6 C        6   8 O                                       1.3989311
     3   6 C        7   7 N                                       1.4463039
     1   6 C        8   6 C                                       1.5232378 (max)
     8   6 C        9   7 N                                       1.4558089
     9   7 N       10   6 C                                       1.3728804
    10   6 C       11   7 N                                       1.3770332
    10   6 C       12   7 N                                       1.2860413
     1   6 C       13   1 H                                       1.0911628
     1   6 C       14   1 H                                       1.0912664
     2   6 C       15   1 H                                       1.0892154
     2   6 C       16   1 H                                       1.0912852
     3   6 C       17   1 H                                       1.0955871
     6   8 O       18   1 H                                       0.9701286 (min)
     7   7 N       19   1 H                                       1.0150488
     7   7 N       20   1 H                                       1.0160926
     8   6 C       21   1 H                                       1.0946612
     8   6 C       22   1 H                                       1.1020809
    11   7 N       23   1 H                                       1.0073837
    11   7 N       24   1 H                                       1.0039746
     5   8 O       26   1 H                                       0.9824977

 * 6 distinct bonds (by element types)

   Z      Z             #   av. dist./Å        max./Å        min./Å
   1 H    6 C           7     1.0936084     1.1020809     1.0892154
   6 C    6 C           3     1.5207894     1.5232378     1.5184407
   1 H    7 N           4     1.0106249     1.0160926     1.0039746
   6 C    7 N           5     1.3876135     1.4558089     1.2860413
   1 H    8 O           2     0.9763132     0.9824977     0.9701286
   6 C    8 O           2     1.3890517     1.3989311     1.3791723

           -------------------------------------------------
          |               Frequency Printout                |
           -------------------------------------------------
 projected vibrational frequencies (cm⁻¹)
eigval :       -0.00    -0.00    -0.00     0.00     0.00     0.00
eigval :       50.82    73.11   111.31   148.51   228.85   259.22
eigval :      287.65   296.13   317.43   329.40   348.83   393.57
eigval :      404.73   443.24   460.55   487.12   498.12   518.68
eigval :      558.57   588.79   613.96   650.74   682.82   730.68
eigval :      747.35   875.10   888.66   930.35   958.44   992.56
eigval :     1007.28  1025.94  1035.00  1053.82  1076.68  1088.99
eigval :     1118.75  1138.37  1148.23  1171.37  1182.48  1201.83
eigval :     1232.65  1247.84  1263.97  1296.05  1312.42  1345.67
eigval :     1351.77  1365.24  1372.33  1411.35  1466.68  1475.52
eigval :     1484.88  1507.12  1560.48  1651.45  2840.11  2931.27
eigval :     2939.46  2980.59  2988.45  2996.33  3010.06  3169.88
eigval :     3384.01  3405.99  3412.34  3427.87  3476.20  3535.76
 reduced masses (amu)
   1: 12.91   2: 12.13   3: 11.30   4: 12.37   5: 11.91   6: 12.00   7: 11.60   8: 12.10
   9:  9.11  10: 11.87  11: 11.75  12: 12.21  13:  6.61  14:  7.42  15:  2.54  16:  9.98
  17: 10.53  18: 10.37  19: 11.50  20:  9.45  21:  3.74  22:  4.25  23: 11.70  24:  9.12
  25: 11.42  26:  8.78  27:  9.71  28: 11.78  29:  2.71  30:  3.28  31: 11.05  32:  8.62
  33:  6.53  34:  6.04  35:  8.12  36:  7.10  37:  6.43  38:  6.22  39:  4.45  40: 10.65
  41:  9.36  42:  8.29  43:  7.15  44:  5.79  45:  6.08  46:  8.33  47:  5.27  48:  5.88
  49:  6.13  50:  8.10  51:  3.43  52:  4.09  53:  3.93  54:  4.95  55:  5.10  56:  5.39
  57:  5.48  58:  9.13  59:  2.54  60:  1.93  61:  2.30  62:  3.66  63:  2.07  64: 11.94
  65:  1.76  66:  1.66  67:  1.74  68:  1.93  69:  1.68  70:  1.71  71:  1.66  72:  1.87
  73:  1.54  74:  1.87  75:  2.05  76:  1.86  77:  1.51  78:  2.10
 IR intensities (km·mol⁻¹)
   1:  0.46   2:  0.89   3:  0.56   4:  0.90   5:  0.23   6:  1.57   7:  1.66   8:  7.47
   9:  0.44  10:  3.40  11:  6.30  12:  5.92  13: 10.86  14: 16.18  15: 44.56  16: 13.57
  17: 24.70  18: 24.68  19:  2.02  20: 18.95  21:176.71  22: 87.50  23: 22.84  24: 10.45
  25:  3.38  26:  3.40  27: 23.14  28: 73.34  29:202.15  30:125.20  31: 12.05  32: 19.75
  33:  8.64  34: 17.30  35: 53.23  36: 77.83  37:165.36  38: 45.49  39:  1.31  40: 33.51
  41:123.46  42: 29.34  43: 55.03  44:106.41  45:  2.58  46:  2.84  47:172.01  48:109.08
  49: 96.17  50: 58.79  51: 37.90  52: 86.04  53: 10.23  54: 32.93  55:  6.03  56:  4.14
  57: 29.09  58:294.33  59: 78.55  60:  1.36  61: 17.25  62:155.71  63: 39.02  64:401.62
  65: 55.59  66: 34.03  67: 29.14  68: 23.76  69: 21.47  70: 66.47  71: 38.67  72:264.69
  73:  6.82  74: 15.96  75:  1.41  76: 74.78  77:  2.37  78:  3.00
 Raman intensities (amu)
   1:  0.00   2:  0.00   3:  0.00   4:  0.00   5:  0.00   6:  0.00   7:  0.00   8:  0.00
   9:  0.00  10:  0.00  11:  0.00  12:  0.00  13:  0.00  14:  0.00  15:  0.00  16:  0.00
  17:  0.00  18:  0.00  19:  0.00  20:  0.00  21:  0.00  22:  0.00  23:  0.00  24:  0.00
  25:  0.00  26:  0.00  27:  0.00  28:  0.00  29:  0.00  30:  0.00  31:  0.00  32:  0.00
  33:  0.00  34:  0.00  35:  0.00  36:  0.00  37:  0.00  38:  0.00  39:  0.00  40:  0.00
  41:  0.00  42:  0.00  43:  0.00  44:  0.00  45:  0.00  46:  0.00  47:  0.00  48:  0.00
  49:  0.00  50:  0.00  51:  0.00  52:  0.00  53:  0.00  54:  0.00  55:  0.00  56:  0.00
  57:  0.00  58:  0.00  59:  0.00  60:  0.00  61:  0.00  62:  0.00  63:  0.00  64:  0.00
  65:  0.00  66:  0.00  67:  0.00  68:  0.00  69:  0.00  70:  0.00  71:  0.00  72:  0.00
  73:  0.00  74:  0.00  75:  0.00  76:  0.00  77:  0.00  78:  0.00
 output can be read by thermo (or use thermo option).
 writing <g98.out> molden fake output.
 recommended (thermochemical) frequency scaling factor: 1.0
           -------------------------------------------------
          |             Thermodynamic Functions             |
           -------------------------------------------------

Molecule has no symmetry elements
It seems to be the C1 point group
c1  symmetry found (for desy threshold:  0.10E+00) used in thermo

          ...................................................
          :                      SETUP                      :
          :.................................................:
          :  # frequencies                          72      :
          :  # imaginary freq.                       0      :
          :  linear?                             false      :
          :  only rotor calc.                    false      :
          :  symmetry                               c1      :
          :  rotational number                       1      :
          :  scaling factor                  1.0000000      :
          :  rotor cutoff                   50.0000000 cm⁻¹ :
          :  imag. cutoff                  -20.0000000 cm⁻¹ :
          :.................................................:

    mode    ω/cm⁻¹     T·S(HO)/kcal·mol⁻¹    T·S(FR)/kcal·mol⁻¹   T·S(vib)
   ------------------------------------------------------------------------
       1     50.82    -1.42677 ( 51.62%)    -1.05159 ( 48.38%)    -1.24524
       2     73.11    -1.21281 ( 82.05%)    -0.94387 ( 17.95%)    -1.16454
       3    111.31    -0.96776 ( 96.09%)    -0.81938 (  3.91%)    -0.96196
       4    148.51    -0.80238 ( 98.73%)    -0.73399 (  1.27%)    -0.80151
       5    228.85    -0.56288 ( 99.77%)    -0.60591 (  0.23%)    -0.56298
       6    259.22    -0.49703 ( 99.86%)    -0.56901 (  0.14%)    -0.49713
       7    287.65    -0.44357 ( 99.91%)    -0.53818 (  0.09%)    -0.44365
       8    296.13    -0.42893 ( 99.92%)    -0.52957 (  0.08%)    -0.42902
   ------------------------------------------------------------------------

   temp. (K)  partition function   enthalpy   heat capacity  entropy
                                   cal/mol     cal/K/mol   cal/K/mol   J/K/mol
 298.15  VIB  0.193E+04             5915.243     42.244     34.080
         ROT  0.976E+06              888.752      2.981     30.387
         INT  0.188E+10             6803.996     45.225     64.468
         TR   0.222E+28             1481.254      4.968     41.354
         TOT                        8285.2497    50.1929   105.8215   442.7573

       T/K    H(0)-H(T)+PV         H(T)/Eh          T*S/Eh         G(T)/Eh
   ------------------------------------------------------------------------
    298.15    0.132034E-01    0.229556E+00    0.502792E-01    0.179277E+00
   ------------------------------------------------------------------------

         :::::::::::::::::::::::::::::::::::::::::::::::::::::
         ::                  THERMODYNAMIC                  ::
         :::::::::::::::::::::::::::::::::::::::::::::::::::::
         :: total free energy         -39.652582594720 Eh   ::
         ::.................................................::
         :: total energy              -39.831859292262 Eh   ::
         :: zero point energy           0.216352542478 Eh   ::
         :: G(RRHO) w/o ZPVE           -0.037075844937 Eh   ::
         :: G(RRHO) contrib.            0.179276697542 Eh   ::
         :::::::::::::::::::::::::::::::::::::::::::::::::::::

optimized geometry written to: xtbopt.xyz


           -------------------------------------------------
          | TOTAL ENERGY              -39.831859292262 Eh   |
          | TOTAL ENTHALPY            -39.602303363892 Eh   |
          | TOTAL FREE ENERGY         -39.652582594720 Eh   |
          | GRADIENT NORM               0.000164406422 Eh/α |
          | HOMO-LUMO GAP               4.623129599470 eV   |
           -------------------------------------------------

------------------------------------------------------------------------
 * finished run on 2025/07/30 at 12:34:48.629     
------------------------------------------------------------------------
 total:
 * wall-time:     0 d,  0 h,  0 min,  1.026 sec
 *  cpu-time:     0 d,  0 h,  0 min,  8.038 sec
 * ratio c/w:     7.837 speedup
 SCF:
 * wall-time:     0 d,  0 h,  0 min,  0.027 sec
 *  cpu-time:     0 d,  0 h,  0 min,  0.207 sec
 * ratio c/w:     7.645 speedup
 ANC optimizer:
 * wall-time:     0 d,  0 h,  0 min,  0.055 sec
 *  cpu-time:     0 d,  0 h,  0 min,  0.424 sec
 * ratio c/w:     7.728 speedup
 analytical hessian:
 * wall-time:     0 d,  0 h,  0 min,  0.922 sec
 *  cpu-time:     0 d,  0 h,  0 min,  7.258 sec
 * ratio c/w:     7.873 speedup

