26
 energy: -39.831859292262 gnorm: 0.000164414567 xtb: 6.6.0 (8843059)
C           -0.96876959406190        2.22547044920436       -0.35711850248804
C           -2.00152146984771        1.28220688823542        0.23393074879826
C           -1.78576682076322       -0.08764233067585       -0.39013661352139
C           -0.37001057029428       -0.63613818237874       -0.06860459815765
O           -0.14574203664010       -1.64222195591396       -0.98490962508249
O           -0.37948155634721       -1.12524184535225        1.24200428855039
N           -2.81894620802472       -1.01093519742704        0.02442960440080
C            0.43249256611842        1.79150282841563        0.05323436358305
N            0.69935233786425        0.38083801010341       -0.18799110588877
C            1.96943065892455       -0.08954624802988        0.03659728165845
N            2.99609364424016        0.82656847066043        0.09060709901453
N            2.16883831897173       -1.35717514347773        0.12177679799986
H           -1.05357444221567        2.21573999463906       -1.44493718948812
H           -1.12360202506146        3.24815786703206       -0.00926874692441
H           -3.01545250910820        1.61306781135271        0.01287671063764
H           -1.88505906488382        1.21071016809808        1.31662546705896
H           -1.83541319312757       -0.00419897536296       -1.48141258586532
H            0.44799725900834       -1.61859197876646        1.35617026114714
H           -2.67023349123799       -1.90060978854312       -0.44106736195059
H           -2.72728060056082       -1.17828993552430        1.02244457652029
H            1.15216758788259        2.37518304302304       -0.52957616727118
H            0.56742648002886        2.01637399015012        1.12365850011165
H            3.89201359038685        0.44921824059934        0.35472063025127
H            2.82583765016645        1.76542790716857        0.40289005472232
H            3.14284436566839       -1.61331104945851        0.23287384510612
H            0.76215182556017       -1.97524340669538       -0.81133821301090
