26
 energy: -39.831859292260 gnorm: 0.000164527772 xtb: 6.6.0 (8843059)
C           -0.96878000000000        2.22546600000000       -0.35711800000000
C           -2.00152900000000        1.28219600000000        0.23392600000000
C           -1.78576500000000       -0.08765100000000       -0.39014300000000
C           -0.37000700000000       -0.63614000000000       -0.06860700000000
O           -0.14573000000000       -1.64222100000000       -0.98491300000000
O           -0.37948000000000       -1.12524600000000        1.24200100000000
N           -2.81894100000000       -1.01095000000000        0.02441800000000
C            0.43248300000000        1.79150500000000        0.05323900000000
N            0.69935100000000        0.38084200000000       -0.18798800000000
C            1.96943100000000       -0.08953600000000        0.03660400000000
N            2.99608900000000        0.82658400000000        0.09061900000000
N            2.16884500000000       -1.35716400000000        0.12178200000000
H           -1.05358100000000        2.21573700000000       -1.44493700000000
H           -1.12361900000000        3.24815200000000       -0.00926700000000
H           -3.01546100000000        1.61305200000000        0.01286900000000
H           -1.88507000000000        1.21069800000000        1.31662100000000
H           -1.83540800000000       -0.00420600000000       -1.48141900000000
H            0.44800100000000       -1.61859200000000        1.35616900000000
H           -2.67022200000000       -1.90062300000000       -0.44108000000000
H           -2.72727800000000       -1.17830600000000        1.02243300000000
H            1.15215700000000        2.37519000000000       -0.52956800000000
H            0.56741200000000        2.01637500000000        1.12366400000000
H            3.89201000000000        0.44923800000000        0.35473500000000
H            2.82582700000000        1.76544200000000        0.40290300000000
H            3.14285200000000       -1.61329500000000        0.23288200000000
H            0.76216500000000       -1.97523800000000       -0.81133900000000
