13
 energy: -21.015556871128 gnorm: 0.124818297136 xtb: 6.6.0 (8843059)
C           -0.89110000000000        0.66670000000000        1.16440000000000
C            0.61730000000000        0.84360000000000        0.96800000000000
C            1.17630000000000       -0.49360000000000        0.71770000000000
O            1.08780000000000       -1.36680000000000        1.59870000000000
O            1.79110000000000       -0.77930000000000       -0.47640000000000
N            0.79780000000000        1.74280000000000       -0.14580000000000
H           -1.41260000000000        0.84860000000000        0.18470000000000
H           -1.13310000000000       -0.37200000000000        1.45850000000000
H           -1.23440000000000        1.36950000000000        1.94350000000000
H            1.04010000000000        1.26040000000000        1.90750000000000
H            1.97390000000000       -1.71990000000000       -0.81160000000000
H            0.87260000000000        1.22320000000000       -1.04100000000000
H            0.00100000000000        2.41320000000000       -0.12800000000000
13
 energy: -21.032880174737 gnorm: 0.047694463786 xtb: 6.6.0 (8843059)
C           -0.91547006287668        0.63982293965850        1.18046888685381
C            0.59749220821634        0.83429655714638        0.93406983987256
C            1.19038376524696       -0.51961585236765        0.71796838259635
O            1.11705681478783       -1.39096101328739        1.56031327350745
O            1.74750326740633       -0.74986321841549       -0.48998496070679
N            0.84475450710747        1.76678441566174       -0.15345567738520
H           -1.44654964177907        0.81707847636523        0.23525401557490
H           -1.15699193987293       -0.37208082341694        1.51102029406025
H           -1.27187724067906        1.35128063696428        1.92325745981398
H            1.04585411019406        1.23892103357013        1.85771160215005
H            1.96928340293358       -1.68216853594952       -0.73046683247379
H            0.88591089977963        1.26073656471974       -1.03538784510379
H            0.07934990953555        2.44216881935099       -0.17056843875977
13
 energy: -21.037353136525 gnorm: 0.019074871989 xtb: 6.6.0 (8843059)
C           -0.93686218811079        0.63847222360493        1.17966362868395
C            0.57823287073581        0.82282061623784        0.92341611690264
C            1.16719268776139       -0.55275909191944        0.70179317239243
O            1.15774692534431       -1.41818972385025        1.53252696017343
O            1.69192161324822       -0.72027282096909       -0.51636600780658
N            0.86974726126972        1.76365481120042       -0.15056003377295
H           -1.47933195757033        0.78354517390098        0.24841474233744
H           -1.14393378924543       -0.35984361917508        1.55361033280843
H           -1.28939839375315        1.36240781544185        1.90550407359469
H            1.04761424963817        1.21470958968086        1.83778739999360
H            1.99799167411383       -1.64406689788256       -0.65455913900777
H            0.88163933616455        1.27638375762133       -1.03684342106299
H            0.14413971040369        2.46953816610820       -0.18418782523632
13
 energy: -21.038278634680 gnorm: 0.011745367463 xtb: 6.6.0 (8843059)
C           -0.94521859118958        0.63414205940708        1.18040972492925
C            0.57018104427755        0.82110618206718        0.92707303941141
C            1.17961980843950       -0.55292081469912        0.69802215422863
O            1.17037293261037       -1.43430196878654        1.51188213421923
O            1.67202093512263       -0.70926169451287       -0.53428875187397
N            0.88625308216311        1.75581312199838       -0.14431151938414
H           -1.49211266959021        0.71859302295304        0.24081503582807
H           -1.13897042409747       -0.34960714081430        1.61204086795436
H           -1.31162774319830        1.39262643310202        1.87039530919646
H            1.03380090432672        1.20776422816317        1.84420588023377
H            1.98783049768234       -1.62198233273500       -0.64767636291542
H            0.88403178882218        1.27925341434529       -1.03903805560853
H            0.19051843463116        2.49517548951168       -0.17932945621912
13
 energy: -21.038886069563 gnorm: 0.016769199804 xtb: 6.6.0 (8843059)
C           -0.95246204722272        0.63376646479874        1.18134959352357
C            0.56089102261023        0.81702988300803        0.92696567488795
C            1.16576800951280       -0.56024255159608        0.67550212674770
O            1.18906823457278       -1.44492621495548        1.49120610819403
O            1.65276792969206       -0.71327175248411       -0.55752675662465
N            0.89744872596476        1.74993472944925       -0.13524781490307
H           -1.49878887841276        0.64289783377637        0.23076793974244
H           -1.13909555516834       -0.32535515971919        1.68220875309377
H           -1.33291200184966        1.43891484156642        1.81931251456462
H            1.02337972450505        1.18896074381716        1.85071206099682
H            2.01992749717429       -1.61423637314034       -0.63473734135548
H            0.85793132491976        1.29112077766540       -1.04359296299910
H            0.24277601370177        2.53180677781383       -0.14671989586861
13
 energy: -21.039394262127 gnorm: 0.014946796657 xtb: 6.6.0 (8843059)
C           -0.94961195820886        0.63219439723714        1.17501254557361
C            0.56158598373052        0.81639563030752        0.92852831637299
C            1.16729440478163       -0.55936008525042        0.66885521535473
O            1.19604836140033       -1.44340911969135        1.48474317656171
O            1.64565559562695       -0.72307925586998       -0.56537278956973
N            0.90003130034881        1.74859376749043       -0.12691528394420
H           -1.48767716807895        0.59117067563115        0.22063070058754
H           -1.13137998427166       -0.30277124469356        1.71613174264683
H           -1.34529689461550        1.46295327864954        1.77016006946941
H            1.01744694406899        1.17969631696618        1.85916784516089
H            2.01808400524149       -1.61150938807755       -0.63751025271338
H            0.82802805425614        1.30206767869195       -1.04073009342516
H            0.26649135572012        2.54345734860898       -0.11250119207524
13
 energy: -21.039936404937 gnorm: 0.009780056570 xtb: 6.6.0 (8843059)
C           -0.94789342847253        0.62725668938969        1.16357191141339
C            0.56096317048384        0.81265906561024        0.92652951663802
C            1.16736732682967       -0.55768519717370        0.66254884610087
O            1.21438978808450       -1.43174238098807        1.48958302635726
O            1.62136051865223       -0.74217130704311       -0.58104833136724
N            0.89981663306607        1.74975326350877       -0.11809065066535
H           -1.47150377983073        0.53871137303676        0.21268580249986
H           -1.12878078668566       -0.27151877405280        1.74543200540084
H           -1.35317715178674        1.47931283584279        1.70729518625613
H            1.01251934715445        1.16351531824723        1.86520941130584
H            2.03195327919711       -1.62037250553824       -0.63464582815865
H            0.78114115125131        1.32303248315888       -1.03556111233018
H            0.29854393205650        2.56564913600155       -0.06330978345081
13
 energy: -21.040247532606 gnorm: 0.018167016680 xtb: 6.6.0 (8843059)
C           -0.94944596697328        0.61540311834244        1.14904996724269
C            0.56050017496989        0.80537363233119        0.92752678881278
C            1.16729081199740       -0.55894261449431        0.66171627978879
O            1.23933619772301       -1.42331070044389        1.49888223577444
O            1.59203739917318       -0.75372167755847       -0.59479546070224
N            0.90784382343219        1.75355036843303       -0.10411110958434
H           -1.45190008332055        0.43782388360852        0.18947450129579
H           -1.12192407306382       -0.23822721246192        1.81417079753690
H           -1.37016831226707        1.51673215545320        1.61250994360043
H            1.00479467799208        1.14705239508893        1.87387592231439
H            2.01940679290941       -1.61618912490524       -0.65479486719231
H            0.74247796412875        1.35335982422417       -1.02397340534554
H            0.34645059329881        2.59749595238235       -0.00933159354178
13
 energy: -21.040494520050 gnorm: 0.017598469593 xtb: 6.6.0 (8843059)
C           -0.94943271761949        0.60942361298166        1.14309654505361
C            0.56448996599148        0.80334337338255        0.92812963255456
C            1.17114857403353       -0.55891992169047        0.67208217326423
O            1.25667988566325       -1.41319386924427        1.51723394723434
O            1.58191744107899       -0.75621534397459       -0.58888141110866
N            0.91118650741196        1.75792577574651       -0.10360879814732
H           -1.44501013865620        0.42702856726100        0.19064761448930
H           -1.12623430798289       -0.23190212723944        1.80672100536487
H           -1.37101927607017        1.50414171568242        1.59438082693350
H            1.00402969514382        1.15177846100676        1.87340157841537
H            1.99557057541008       -1.61735134076924       -0.67096012589096
H            0.74071929306762        1.36509404948519       -1.01781980558287
H            0.35265450252800        2.59524704737191       -0.00422318257998
13
 energy: -21.040788985191 gnorm: 0.009115649717 xtb: 6.6.0 (8843059)
C           -0.95039540900378        0.60505738732183        1.13645580304567
C            0.56732624882402        0.79937696555009        0.92996777967634
C            1.17726136291855       -0.56202470136953        0.67430397405982
O            1.28101833515012       -1.41059708613339        1.51982826788179
O            1.56068443990503       -0.76079610870065       -0.59376692530094
N            0.91839296992057        1.75785964189892       -0.09929999279629
H           -1.43487310631366        0.38293223073004        0.18640570805312
H           -1.13013187272322       -0.21224612038067        1.82501153903627
H           -1.38665976773868        1.51310134268683        1.54843928151292
H            0.99993788241969        1.15020078511936        1.87632213027299
H            1.99174964619767       -1.62215766470251       -0.67292196509055
H            0.70547239116872        1.38111702811914       -1.01893263796232
H            0.38691687927497        2.61457629986055        0.02838703761117
13
 energy: -21.040949727426 gnorm: 0.010865667820 xtb: 6.6.0 (8843059)
C           -0.95133698255553        0.59723334365408        1.12527619125927
C            0.56976695164240        0.79757201746079        0.93845097164036
C            1.18558778602385       -0.56196795197208        0.67674692785784
O            1.32266843533445       -1.40634051837123        1.52132401284867
O            1.52373198638214       -0.76131991352551       -0.60441280193131
N            0.93025951265500        1.75829087189924       -0.08726121520626
H           -1.41424893255443        0.30806077451707        0.17569988781471
H           -1.13330769852137       -0.18173944144627        1.86780013603089
H           -1.40812864776348        1.53137762790470        1.47140447992422
H            0.98679227634207        1.15203370352213        1.88938974542371
H            1.96461084660280       -1.62358787103311       -0.69129745594574
H            0.68476976435741        1.40339633447771       -1.00587791196716
H            0.42553470205471        2.62339102291248        0.06295703225080
13
 energy: -21.041162355342 gnorm: 0.005948347427 xtb: 6.6.0 (8843059)
C           -0.95134007523812        0.59178812282812        1.11947141714622
C            0.56970703625465        0.80115446253612        0.94396154185878
C            1.19091533164587       -0.55873838352245        0.68173335232745
O            1.34540019839990       -1.40128967126254        1.52514611044239
O            1.51386222603763       -0.75793773313789       -0.59920598273856
N            0.93481513925085        1.75463392102803       -0.08639074104707
H           -1.40523495132975        0.29028688002299        0.17470411360028
H           -1.13451608935971       -0.17781568183081        1.86723604234786
H           -1.41463865961597        1.52053797545942        1.45118878215009
H            0.97854268229142        1.16216817884363        1.89547645413478
H            1.93730993391412       -1.62674355474810       -0.70074442017076
H            0.67412315482755        1.40380213070314       -1.00273467568229
H            0.44775407292158        2.63455335308035        0.07035800563080
13
 energy: -21.041270115578 gnorm: 0.005897543926 xtb: 6.6.0 (8843059)
C           -0.94729596992658        0.58436537147729        1.11260868078836
C            0.57241459734640        0.80813993192278        0.95311799263821
C            1.20139124912956       -0.55096181118599        0.68989507313307
O            1.37795622627480       -1.38969935216033        1.53325256708828
O            1.49151877413974       -0.75547595675574       -0.59794033792693
N            0.93916239162977        1.75744149031266       -0.07870767315007
H           -1.38362286822859        0.26315544225492        0.16844503023817
H           -1.13245798881680       -0.17539415683802        1.86111382073818
H           -1.42671900793838        1.51064211336338        1.42227475844349
H            0.97160839006426        1.17364737098782        1.90660079147463
H            1.88762573079038       -1.63543746959846       -0.71437268568296
H            0.67570865513173        1.41090950547306       -0.99167820613834
H            0.45940982040372        2.63506752074665        0.07559018835590
13
 energy: -21.041284486485 gnorm: 0.009080720010 xtb: 6.6.0 (8843059)
C           -0.94342957115510        0.57059349645339        1.09712970142565
C            0.57504796048320        0.81159825256279        0.95903734764514
C            1.21084415229750       -0.54453701680720        0.69665462220081
O            1.42128478271408       -1.37115498172075        1.54710359124362
O            1.45961487570522       -0.76172082720924       -0.59950200801932
N            0.94657218933887        1.76293434185146       -0.06731280502668
H           -1.35535979122716        0.19826408993055        0.15495276240230
H           -1.13093556803717       -0.15881884111123        1.88110997320803
H           -1.44343259629557        1.50719338200427        1.35499985783302
H            0.96203284996648        1.17614377664856        1.91791741636475
H            1.83708953790225       -1.64544202040519       -0.72964180898750
H            0.64966855245448        1.43299744208164       -0.98105667953359
H            0.49770262585294        2.65834890572096        0.10880802924376
13
 energy: -21.041338378871 gnorm: 0.004603956579 xtb: 6.6.0 (8843059)
C           -0.94218606361916        0.57223392213755        1.09958153316696
C            0.57433998537962        0.81247128467002        0.95422735174696
C            1.20762907282923       -0.54424250378825        0.69257534301112
O            1.40341102882800       -1.37148243372583        1.54028163381912
O            1.46968494509106       -0.76280663937973       -0.59707717667590
N            0.94230457815069        1.76670553264521       -0.06972144175333
H           -1.36119927935603        0.21913779890319        0.15911287087367
H           -1.13102259770863       -0.16718057091553        1.87739225990457
H           -1.43307561845940        1.50147463656827        1.37630124397555
H            0.96507122020138        1.17299681583337        1.91310334440316
H            1.84907764183970       -1.64765346980706       -0.71880124916119
H            0.66121976466349        1.43161931763171       -0.98417206620477
H            0.48144532216003        2.65312630922711        0.09739635289406
13
 energy: -21.041364700674 gnorm: 0.004556788363 xtb: 6.6.0 (8843059)
C           -0.94269417699021        0.57367931535134        1.10129819472974
C            0.57408766507548        0.81203485755599        0.95457568660073
C            1.20690110847330       -0.54435363947565        0.69175801447437
O            1.41175687283689       -1.36932801859148        1.54346011844867
O            1.46303164894647       -0.76453607998225       -0.60109276465734
N            0.94152928312715        1.76671683058160       -0.06910644724987
H           -1.36107519868324        0.22453176627712        0.15975116681697
H           -1.13186885230363       -0.16940171699985        1.86893292110746
H           -1.43708530748689        1.50125434515379        1.38112237146374
H            0.96705396500233        1.17165505694209        1.91261146785819
H            1.84960500037539       -1.64824980210969       -0.71549141022644
H            0.66695447488702        1.42990948697210       -0.98326521900472
H            0.47850351673995        2.65248759832492        0.09564589963849
13
 energy: -21.041384973787 gnorm: 0.002772315129 xtb: 6.6.0 (8843059)
C           -0.94142957574561        0.57095978687483        1.09808482330505
C            0.57542543236005        0.81346280519064        0.95630223547894
C            1.20938904978214       -0.54206219870792        0.69270576435578
O            1.42098035812055       -1.36396095409137        1.54418590101522
O            1.45334114329808       -0.76718669861379       -0.60168872169488
N            0.94343582019541        1.76909743176072       -0.06602474551144
H           -1.35414813023673        0.20723767265795        0.15700631197243
H           -1.13035550213477       -0.16533769552475        1.87306518205228
H           -1.44190626944408        1.50036767207911        1.36523519987985
H            0.96543259617659        1.17262302090696        1.91571981013639
H            1.83760031590382       -1.65154828229407       -0.71755472538075
H            0.66302399829336        1.43562249014752       -0.98057350043560
H            0.48591076343119        2.65712494961417        0.10373646482672
13
 energy: -21.041404977243 gnorm: 0.003059927728 xtb: 6.6.0 (8843059)
C           -0.94062860958479        0.56643558652800        1.09209273942649
C            0.57618908796714        0.81465819515505        0.95836530097555
C            1.21293981931874       -0.53903661680851        0.69356617807763
O            1.44280204693030       -1.35451981749987        1.54697637157114
O            1.43589265217084       -0.77210098407114       -0.60333376805124
N            0.94612326839025        1.77288906491284       -0.06068345931590
H           -1.34375689814912        0.18759055050218        0.15336799422979
H           -1.13222256219574       -0.16006096827366        1.87916182908687
H           -1.44759257094533        1.49765104480663        1.34191022947673
H            0.96131822985608        1.17229729932687        1.92032199020018
H            1.81964538953583       -1.65659834235536       -0.71966317648520
H            0.66072497361551        1.44411980098468       -0.97661181403054
H            0.49526517309029        2.66307518679230        0.11472958483850
13
 energy: -21.041434297513 gnorm: 0.002422938390 xtb: 6.6.0 (8843059)
C           -0.94019325378883        0.56342035760232        1.08786401785703
C            0.57660139919559        0.81595824289097        0.96031175639743
C            1.21575206490506       -0.53552540981830        0.69393868098339
O            1.46481917838406       -1.34377159544014        1.54834512578875
O            1.41600008101036       -0.77849124325369       -0.60497727379142
N            0.94808963623887        1.77718509110061       -0.05548547402928
H           -1.33529766486616        0.17289691872389        0.15064806594439
H           -1.13371913705525       -0.15745410104789        1.87935833217548
H           -1.45219941017554        1.49392371165262        1.32617190079043
H            0.95831663901612        1.17159469966391        1.92425052910795
H            1.80351771653695       -1.66116042703503       -0.71921340438907
H            0.66583772063480        1.45006846273468       -0.97299932718434
H            0.49917502996399        2.66775529222606        0.12198707034923
13
 energy: -21.041481925523 gnorm: 0.004008498442 xtb: 6.6.0 (8843059)
C           -0.94073986414893        0.55952515545210        1.08136079310938
C            0.57670992465680        0.81678739162714        0.96522905340826
C            1.22136630285706       -0.53044813149931        0.69533739487892
O            1.50979826562603       -1.32601656458841        1.54967923256655
O            1.37833297495210       -0.78893682657456       -0.60748632387320
N            0.95195922411571        1.78263152923958       -0.04570719086117
H           -1.32272206477571        0.15654730785169        0.14673717181214
H           -1.14019945799608       -0.15377269632758        1.87713573074446
H           -1.45949543566714        1.48966322265453        1.30263779767338
H            0.95207474110492        1.17040724492620        1.93212511293746
H            1.77742998392922       -1.66590162610137       -0.72069700096634
H            0.68261802919663        1.45538913514301       -0.96654999686549
H            0.49956737614940        2.67052485819700        0.13039822543564
13
 energy: -21.041518407790 gnorm: 0.004592398778 xtb: 6.6.0 (8843059)
C           -0.94206773981393        0.55870554148961        1.07777406766447
C            0.57586171190306        0.81650179906833        0.96942414565136
C            1.22455606548473       -0.52795568578596        0.69675827173230
O            1.54287768663441       -1.31460417770186        1.54841919240629
O            1.35126758727872       -0.79523058099602       -0.60703943133042
N            0.95543068030501        1.78494050446268       -0.03848431344012
H           -1.31733641685091        0.14980000532729        0.14330650924244
H           -1.14647649460316       -0.15093924237730        1.87441831042187
H           -1.46145078415811        1.48795564949265        1.29186977671319
H            0.94688963185396        1.16918647120390        1.93814360500897
H            1.76182994204336       -1.66583640133362       -0.72402437695552
H            0.70103937456229        1.45457667795838       -0.96202983703348
H            0.49427875536058        2.66929943919193        0.13166407991864
13
 energy: -21.041555603638 gnorm: 0.001830599315 xtb: 6.6.0 (8843059)
C           -0.94145695876472        0.55832854745871        1.07595760664908
C            0.57639608009124        0.81621160976964        0.97074199352252
C            1.22743798405356       -0.52774193262788        0.69848355493022
O            1.55034465007829       -1.31194892972483        1.54954754214059
O            1.34802922789172       -0.79614563260728       -0.60546193593474
N            0.95629175788870        1.78451992486660       -0.03670422447621
H           -1.31981717401866        0.15776338963494        0.13715526026699
H           -1.14633885805058       -0.15377910398575        1.87089315484374
H           -1.45849725371682        1.48940104146497        1.29587837497714
H            0.94545868416837        1.16933324858508        1.94018464608573
H            1.75760580141099       -1.66734079343279       -0.72540428915953
H            0.70489016292151        1.45131300549533       -0.96038907203846
H            0.48635589604640        2.66648562510329        0.12931738819292
13
 energy: -21.041589966432 gnorm: 0.003863373554 xtb: 6.6.0 (8843059)
C           -0.93992394860265        0.55880636139878        1.07279728451737
C            0.57751640261547        0.81618908611023        0.97390307009038
C            1.23301948688693       -0.52755692752027        0.70340934776484
O            1.57668901770666       -1.30170808513343        1.55425449406918
O            1.33377336834958       -0.80100028419183       -0.60107656287833
N            0.96007697170841        1.78494741825302       -0.03203179346439
H           -1.32251781405153        0.18303839871453        0.12263791183256
H           -1.14903697695728       -0.16608617716662        1.85552205466844
H           -1.45376462626624        1.49056807426704        1.31149481613820
H            0.94102258704225        1.16956372808284        1.94557552886224
H            1.74418022353691       -1.67158625365723       -0.72910337414230
H            0.72162174921002        1.44270340765009       -0.95694067258254
H            0.46404355882148        2.65852125319287        0.11975789512433
13
 energy: -21.041605780532 gnorm: 0.002696596300 xtb: 6.6.0 (8843059)
C           -0.93985996905413        0.55902630932307        1.07193168252064
C            0.57755708468088        0.81679627830612        0.97473504791822
C            1.23445688058962       -0.52619233882422        0.70412210604221
O            1.58307127306162       -1.29809747601655        1.55514115228944
O            1.32779582532275       -0.80302301246985       -0.60033726622781
N            0.96067741677339        1.78606488657368       -0.03088976837200
H           -1.32072560545280        0.18559206992010        0.12113001453485
H           -1.14943036284965       -0.16950257058423        1.85081008102861
H           -1.45491987323504        1.48851960358454        1.31372659169151
H            0.94070274279586        1.16990071426137        1.94664183345604
H            1.73861522197562       -1.67309470985290       -0.72878780205598
H            0.72658826515958        1.44247391965006       -0.95642213052602
H            0.46217110023229        2.65793632612882        0.11839845770027
13
 energy: -21.041633336849 gnorm: 0.001693324610 xtb: 6.6.0 (8843059)
C           -0.94025692912221        0.55957068245271        1.06889829388501
C            0.57699630583286        0.81861634160904        0.97770106695243
C            1.23572348554255       -0.52296198790327        0.70636261006646
O            1.60925653614211       -1.28390834293440        1.55772246146767
O            1.30491930171364       -0.81107994192101       -0.59776811096765
N            0.96275374921240        1.78945363034064       -0.02681201685019
H           -1.31590642788531        0.19696882070414        0.11410677604781
H           -1.15132810857497       -0.18225890829052        1.83443430323619
H           -1.45703073321803        1.48238130556825        1.32344727706752
H            0.93871451036579        1.17077117927050        1.95046269399305
H            1.72216314894886       -1.67719448246658       -0.72707356018153
H            0.74520371315813        1.44024571184916       -0.95432744015560
H            0.45549144788417        2.65579599172136        0.11304564543882
13
 energy: -21.041641842364 gnorm: 0.001830495858 xtb: 6.6.0 (8843059)
C           -0.93984008844426        0.55877389767250        1.06569490804340
C            0.57740237591173        0.82000484097618        0.97972035931623
C            1.24116548376188       -0.51878528378666        0.70824807995380
O            1.63002892937631       -1.27273024380985        1.55857774378132
O            1.28747873235555       -0.81760205195753       -0.59517001569040
N            0.96454613575978        1.79265979321423       -0.02301244597591
H           -1.31273856651842        0.20656613560145        0.10584245285334
H           -1.15167077486950       -0.19224882895025        1.82238521603510
H           -1.45788141342320        1.47775209385362        1.33038918184201
H            0.93548932332687        1.17190413603975        1.95384406871667
H            1.70508716380415       -1.68333288748240       -0.72468898156013
H            0.75961387208462        1.43876375731271       -0.95162259110256
H            0.44801882687449        2.65467464131627        0.10999202378710
13
 energy: -21.041648358497 gnorm: 0.000707678383 xtb: 6.6.0 (8843059)
C           -0.93935533749694        0.55761352585415        1.06357417123775
C            0.57783725500977        0.82083926758111        0.98068232700361
C            1.24129165521361       -0.51764398923063        0.70883008768716
O            1.64161939295500       -1.26685028195814        1.55745482055892
O            1.27835820309460       -0.82092457089132       -0.59345780395798
N            0.96547166474694        1.79414440463903       -0.02115978456949
H           -1.31124404599151        0.20942348721547        0.10149271054913
H           -1.15110563994851       -0.19593784970833        1.81751008921142
H           -1.45825661406877        1.47539150959237        1.33130664356682
H            0.93394718335653        1.17252488935709        1.95560792670965
H            1.69711614354167       -1.68638985471561       -0.72208527008203
H            0.76437060251671        1.43913456727903       -0.94960441573206
H            0.44664953707091        2.65507489498579        0.11004849781706
13
 energy: -21.041652274783 gnorm: 0.000523224641 xtb: 6.6.0 (8843059)
C           -0.93920017234303        0.55637718373463        1.06172070807279
C            0.57801582589671        0.82114077529090        0.98141316620832
C            1.24292045924415       -0.51647435692095        0.70920528109232
O            1.65258904505361       -1.26235987903102        1.55625263991262
O            1.27085208973403       -0.82340203666005       -0.59234664920221
N            0.96647912511522        1.79489676026806       -0.01934361039292
H           -1.30930715195126        0.20823651463265        0.09871720138253