13
 energy: -21.043019888352 gnorm: 0.000026479945 xtb: 6.6.0 (8843059)
C           -1.21340200000000       -1.34540900000000       -0.51795200000000
C           -0.71025700000000       -0.24084000000000        0.41757200000000
C            0.75834600000000        0.01528000000000        0.08733500000000
O            1.65851300000000       -0.74754600000000        0.31450800000000
O            0.95360800000000        1.19947400000000       -0.51186300000000
N           -1.57480600000000        0.91590900000000        0.32227600000000
H           -2.24308500000000       -1.58184600000000       -0.26773100000000
H           -1.17374100000000       -1.00889700000000       -1.55193500000000
H           -0.59839900000000       -2.23409300000000       -0.40995400000000
H           -0.74561800000000       -0.61041000000000        1.44978900000000
H            1.89268000000000        1.31770100000000       -0.72362200000000
H           -1.25638300000000        1.65598700000000        0.93766800000000
H           -1.56843700000000        1.28035400000000       -0.62460100000000
