 Entering Gaussian System
 *********************************************
 Gaussian 98:
 frequency output generated by the xtb code
 *********************************************
                         Standard orientation:
 --------------------------------------------------------------------
  Center     Atomic     Atomic              Coordinates (Angstroms)
  Number     Number      Type              X           Y           Z
 --------------------------------------------------------------------
    1          6             0       -0.684426    2.071293   -0.350388
    2          6             0       -1.929938    1.193645   -0.233671
    3          6             0       -1.603172   -0.200410    0.309891
    4          6             0       -0.450195   -0.864035   -0.510946
    5          8             0       -0.873657   -1.011429   -1.831100
    6          8             0       -0.141782   -2.106959   -0.019069
    7          7             0       -1.320171   -0.148881    1.730730
    8          6             0        0.366306    1.310478   -1.157314
    9          7             0        0.714433    0.062517   -0.498708
   10          6             0        1.627528    0.013304    0.516962
   11          7             0        2.261913    1.184596    0.884379
   12          7             0        1.870091   -1.102764    1.106655
   13          1             0       -0.933798    3.007068   -0.852616
   14          1             0       -0.294953    2.308682    0.641767
   15          1             0       -2.374891    1.073860   -1.221972
   16          1             0       -2.660445    1.655712    0.430635
   17          1             0       -2.475786   -0.849149    0.178791
   18          1             0        0.685348   -2.018516    0.538856
   19          1             0       -1.160791   -1.090215    2.074581
   20          1             0       -0.473446    0.383344    1.905802
   21          1             0       -0.058803    1.032771   -2.125014
   22          1             0        1.262481    1.904320   -1.347553
   23          1             0        3.118502    1.063301    1.401356
   24          1             0        2.261850    1.973244    0.261409
   25          1             0        2.563988   -1.048849    1.840917
   26          1             0       -0.479964   -1.829608   -2.160851
 --------------------------------------------------------------------
     1 basis functions        1 primitive gaussians
     1 alpha electrons        1 beta electrons
 
 Harmonic frequencies (cm**-1), IR intensities (km*mol⁻¹),
 Raman scattering activities (A**4/amu), Raman depolarization ratios,
 reduced masses (AMU), force constants (mDyne/A) and normal coordinates:
                      1                      2                      3
                        a                      a                      a 
 Frequencies --    41.5677                77.8196               112.2272
 Red. masses --    12.3255                11.9597                10.3090
 Frc consts  --     0.0000                 0.0000                 0.0000
 IR Inten    --     2.8578                 2.1324                 0.4829
 Raman Activ --     0.0000                 0.0000                 0.0000
 Depolar     --     0.0000                 0.0000                 0.0000
 Atom AN      X      Y      Z        X      Y      Z        X      Y      Z
   1   6    -0.04   0.03  -0.07     0.11  -0.03  -0.13     0.33   0.04   0.15
   2   6    -0.04   0.03  -0.12     0.12  -0.02   0.07     0.21   0.23   0.22
   3   6    -0.04   0.07  -0.02     0.17   0.01   0.13    -0.02   0.05  -0.09
   4   6    -0.02   0.01   0.06     0.00  -0.04  -0.07    -0.01  -0.02  -0.02
   5   8     0.04  -0.08   0.05    -0.23   0.07  -0.00    -0.02  -0.20  -0.00
   6   8    -0.10   0.06   0.24     0.05  -0.10  -0.25    -0.04   0.04   0.17
   7   7    -0.04   0.16  -0.03     0.44   0.12   0.08    -0.24  -0.36  -0.03
   8   6     0.02   0.00   0.03     0.07  -0.08  -0.13     0.03  -0.07  -0.13
   9   7    -0.03   0.00   0.05     0.05  -0.09  -0.15     0.04  -0.08  -0.16
  10   6     0.07  -0.07  -0.05    -0.16   0.01   0.07    -0.04   0.08  -0.06
  11   7    -0.27  -0.01   0.34    -0.45   0.10   0.28    -0.27   0.19  -0.05
  12   7     0.46  -0.23  -0.50    -0.14   0.02   0.07     0.07   0.13  -0.03
  13   1    -0.00   0.00  -0.04     0.02  -0.02  -0.06     0.12   0.05   0.10
  14   1    -0.04   0.02  -0.01     0.05   0.02  -0.05     0.16  -0.05   0.03
  15   1     0.01  -0.01  -0.04     0.00  -0.03   0.04     0.00   0.15   0.08
  16   1    -0.03   0.02  -0.05     0.06   0.01   0.03     0.12   0.07   0.12
  17   1    -0.01   0.02   0.00     0.04   0.01   0.09    -0.03   0.06  -0.10
  18   1     0.06  -0.01  -0.05    -0.01  -0.03  -0.03     0.01   0.02   0.02
  19   1    -0.02   0.05   0.01     0.15   0.04   0.03    -0.11  -0.13  -0.07
  20   1    -0.00   0.03  -0.02     0.11   0.06  -0.02    -0.05  -0.14   0.06
  21   1     0.02  -0.00   0.00     0.01  -0.02  -0.04    -0.07  -0.02  -0.00
  22   1     0.01  -0.01   0.03     0.03  -0.04  -0.04     0.02  -0.06  -0.11
  23   1    -0.04   0.02   0.05    -0.15   0.06   0.13    -0.08   0.09   0.02
  24   1    -0.18   0.07   0.19    -0.10   0.03   0.07    -0.08   0.04  -0.03
  25   1     0.11  -0.08  -0.12    -0.09   0.02   0.06    -0.01   0.06   0.01
  26   1     0.02  -0.02   0.03    -0.08   0.02  -0.03     0.02  -0.04   0.01
                      4                      5                      6
                        a                      a                      a 
 Frequencies --   203.6790               231.2168               276.4927
 Red. masses --    12.5378                 9.0514                 2.8705
 Frc consts  --     0.0000                 0.0000                 0.0000
 IR Inten    --     0.5709                 1.7082                61.8281
 Raman Activ --     0.0000                 0.0000                 0.0000
 Depolar     --     0.0000                 0.0000                 0.0000
 Atom AN      X      Y      Z        X      Y      Z        X      Y      Z
   1   6     0.07  -0.08  -0.22     0.12  -0.13   0.48     0.02   0.01   0.04
   2   6     0.08  -0.10  -0.09     0.04  -0.09  -0.23     0.02  -0.01   0.04
   3   6    -0.02  -0.06   0.12     0.00  -0.02  -0.05     0.04   0.00   0.04
   4   6     0.02   0.03   0.10     0.01  -0.07  -0.02     0.09   0.03  -0.01
   5   8    -0.37   0.31   0.22    -0.19  -0.10   0.05     0.11  -0.06  -0.06
   6   8     0.24  -0.05  -0.23     0.12  -0.08  -0.07     0.12   0.01  -0.12
   7   7    -0.46  -0.07   0.20    -0.09   0.39  -0.05    -0.21   0.05   0.09
   8   6     0.15  -0.08  -0.11    -0.01   0.05   0.15    -0.01   0.04  -0.02
   9   7     0.07  -0.02   0.03     0.06  -0.10  -0.16     0.03   0.05  -0.04
  10   6     0.09   0.02   0.01     0.01  -0.01  -0.08     0.00  -0.00  -0.03
  11   7     0.05   0.04   0.02    -0.11   0.06  -0.10    -0.01  -0.01   0.06
  12   7     0.16   0.02  -0.01     0.04   0.06   0.01    -0.04  -0.03  -0.06
  13   1     0.00  -0.04  -0.10     0.10   0.06   0.29    -0.00   0.01   0.02
  14   1     0.01   0.02  -0.07     0.01  -0.22   0.19     0.02  -0.00   0.01
  15   1     0.03  -0.07  -0.02     0.16  -0.03  -0.13     0.01  -0.00   0.01
  16   1     0.02   0.01  -0.06    -0.09  -0.05  -0.17     0.00  -0.01   0.01
  17   1    -0.00  -0.01  -0.03     0.01  -0.02   0.01     0.02  -0.01  -0.01
  18   1     0.04  -0.01  -0.04     0.01  -0.01   0.00     0.04  -0.00  -0.03
  19   1    -0.17  -0.02   0.07    -0.13   0.13   0.10     0.16   0.04   0.00
  20   1    -0.13  -0.03   0.13     0.03   0.04  -0.04    -0.20   0.22   0.08
  21   1     0.07  -0.03  -0.04    -0.05   0.08   0.05    -0.01   0.00   0.00
  22   1     0.05  -0.02  -0.01    -0.00   0.01   0.03    -0.01   0.02  -0.01
  23   1     0.03   0.02  -0.01    -0.06   0.03   0.03    -0.02  -0.02   0.04
  24   1    -0.03   0.03   0.03     0.02  -0.01  -0.05     0.07  -0.03  -0.03
  25   1     0.04   0.01  -0.00     0.00   0.04   0.01    -0.02  -0.02  -0.01
  26   1    -0.03   0.16  -0.06     0.03   0.03  -0.04    -0.64  -0.47   0.31
                      7                      8                      9
                        a                      a                      a 
 Frequencies --   288.4578               306.8975               318.6445
 Red. masses --     1.8967                 9.7478                11.8960
 Frc consts  --     0.0000                 0.0000                 0.0000
 IR Inten    --    96.7482                 9.0150                20.1466
 Raman Activ --     0.0000                 0.0000                 0.0000
 Depolar     --     0.0000                 0.0000                 0.0000
 Atom AN      X      Y      Z        X      Y      Z        X      Y      Z
   1   6    -0.01   0.05  -0.04     0.06  -0.02   0.04    -0.06   0.22  -0.06
   2   6     0.03   0.00  -0.05    -0.03   0.11   0.22     0.01   0.14   0.18
   3   6     0.03   0.01   0.04    -0.06  -0.01  -0.01     0.05   0.03  -0.05
   4   6    -0.00  -0.00   0.00    -0.02  -0.08  -0.01     0.06  -0.09  -0.02
   5   8     0.07  -0.02  -0.05     0.30   0.13  -0.16    -0.10  -0.45   0.10
   6   8     0.03  -0.03  -0.09     0.05  -0.20  -0.27     0.44  -0.03  -0.14
   7   7     0.11   0.05   0.04    -0.13   0.32  -0.01    -0.14   0.20  -0.02
   8   6    -0.01   0.02   0.00    -0.12  -0.23   0.01    -0.09   0.14  -0.02
   9   7    -0.08   0.05   0.08    -0.11  -0.11   0.22    -0.05   0.13  -0.07
  10   6    -0.03   0.03   0.03    -0.00  -0.05   0.10    -0.08  -0.03  -0.05
  11   7     0.03  -0.00  -0.00    -0.08   0.06  -0.16     0.07  -0.19   0.16
  12   7    -0.02   0.02   0.02     0.15  -0.03   0.09    -0.16  -0.08  -0.08
  13   1    -0.01   0.01  -0.02     0.03  -0.01  -0.01    -0.05   0.03  -0.06
  14   1    -0.02   0.01  -0.01     0.05   0.01  -0.01     0.01   0.13  -0.04
  15   1     0.03  -0.02  -0.02    -0.10   0.11   0.10    -0.09   0.10   0.09
  16   1    -0.00   0.00  -0.03     0.07   0.02   0.16     0.06   0.00   0.15
  17   1    -0.01   0.03   0.02    -0.03   0.01   0.01     0.00   0.03  -0.03
  18   1    -0.01  -0.01   0.00    -0.01  -0.06  -0.05     0.07   0.04   0.04
  19   1    -0.57  -0.04   0.14     0.01   0.13   0.08    -0.12   0.07   0.07
  20   1     0.37  -0.51  -0.05    -0.07   0.15  -0.03    -0.01   0.01   0.00
  21   1     0.00  -0.01   0.00    -0.09  -0.12   0.04    -0.04   0.03  -0.00
  22   1     0.01  -0.01  -0.01    -0.03  -0.10  -0.10    -0.02   0.04  -0.01
  23   1     0.08   0.01  -0.12     0.10   0.09  -0.23    -0.01  -0.12   0.07
  24   1    -0.15   0.07   0.09    -0.28   0.06   0.02     0.09  -0.04   0.06
  25   1     0.01   0.00  -0.01     0.07   0.02  -0.00    -0.05  -0.04  -0.02
  26   1    -0.26  -0.20   0.13     0.09   0.04  -0.04     0.22   0.03  -0.03
                     10                     11                     12
                        a                      a                      a 
 Frequencies --   321.8787               350.6511               374.6155
 Red. masses --     5.3854                 9.8566                10.8170
 Frc consts  --     0.0000                 0.0000                 0.0000
 IR Inten    --    32.2904                16.8397                 5.3445
 Raman Activ --     0.0000                 0.0000                 0.0000
 Depolar     --     0.0000                 0.0000                 0.0000
 Atom AN      X      Y      Z        X      Y      Z        X      Y      Z
   1   6    -0.07  -0.11  -0.05     0.01   0.16  -0.03     0.15   0.20  -0.00
   2   6    -0.09  -0.04   0.16     0.00   0.15  -0.08     0.30  -0.06  -0.16
   3   6     0.03  -0.02   0.07    -0.11   0.05  -0.14     0.02  -0.02   0.19
   4   6     0.07   0.03   0.02    -0.12  -0.07  -0.03    -0.08  -0.11   0.11
   5   8     0.27   0.18  -0.06    -0.28  -0.09   0.01     0.27  -0.05   0.02
   6   8    -0.13  -0.03   0.01     0.13  -0.08  -0.16    -0.02  -0.21  -0.10
   7   7    -0.11   0.17   0.11     0.14  -0.09  -0.22    -0.00  -0.09   0.24
   8   6    -0.06  -0.08  -0.07     0.01  -0.06   0.20     0.02   0.10  -0.00
   9   7     0.11  -0.05  -0.08    -0.18  -0.03   0.34    -0.31   0.16   0.22
  10   6     0.07  -0.03  -0.07     0.04  -0.05   0.14    -0.16   0.08  -0.03
  11   7    -0.13   0.09  -0.01    -0.05   0.12  -0.08    -0.09   0.08  -0.13
  12   7     0.03  -0.05  -0.10     0.34   0.01   0.14    -0.18  -0.03  -0.25
  13   1    -0.03  -0.04  -0.03     0.02   0.02  -0.07     0.00   0.05   0.00
  14   1     0.01  -0.01  -0.03    -0.02   0.10  -0.01     0.04   0.06  -0.00
  15   1    -0.10   0.01   0.08     0.00   0.06  -0.03     0.23  -0.11  -0.10
  16   1     0.03  -0.01   0.11    -0.00   0.03  -0.02    -0.03   0.01  -0.19
  17   1     0.03  -0.03   0.02    -0.07   0.06  -0.03    -0.04   0.05   0.06
  18   1    -0.03  -0.03  -0.00     0.02  -0.01  -0.03    -0.01  -0.05  -0.02
  19   1    -0.24   0.05   0.13     0.06  -0.04  -0.10     0.07  -0.03   0.03
  20   1     0.07  -0.11   0.02     0.05  -0.04  -0.10    -0.05   0.04   0.09
  21   1    -0.01  -0.03  -0.02     0.01  -0.04   0.06    -0.01   0.03   0.01
  22   1    -0.04   0.01  -0.01     0.02  -0.04   0.05     0.05  -0.04  -0.02
  23   1    -0.25   0.01   0.37    -0.13   0.04   0.17    -0.05  -0.00  -0.00
  24   1     0.44  -0.20  -0.30     0.27  -0.14  -0.24     0.08  -0.05  -0.12
  25   1     0.00  -0.04  -0.02     0.16   0.03  -0.02    -0.02  -0.07  -0.10
  26   1     0.06   0.04  -0.01    -0.14  -0.06   0.01     0.16   0.03   0.01
                     13                     14                     15
                        a                      a                      a 
 Frequencies --   413.0069               432.9503               472.3006
 Red. masses --    11.6333                10.2544                 9.2909
 Frc consts  --     0.0000                 0.0000                 0.0000
 IR Inten    --    18.3731                 6.7209                 8.3481
 Raman Activ --     0.0000                 0.0000                 0.0000
 Depolar     --     0.0000                 0.0000                 0.0000
 Atom AN      X      Y      Z        X      Y      Z        X      Y      Z
   1   6    -0.10   0.17  -0.02    -0.10   0.17  -0.04     0.13  -0.25  -0.05
   2   6    -0.01   0.04  -0.05     0.05  -0.03   0.11     0.00  -0.12   0.15
   3   6     0.08   0.09   0.05     0.13  -0.03   0.01    -0.25  -0.17   0.08
   4   6     0.09   0.09   0.02     0.03  -0.10  -0.08    -0.23   0.02  -0.07
   5   8     0.11   0.11  -0.00    -0.06  -0.20  -0.04     0.04  -0.06  -0.21
   6   8     0.24   0.21   0.12    -0.39  -0.30  -0.10     0.14   0.22   0.06
   7   7    -0.02  -0.07   0.10    -0.11   0.04   0.05     0.01   0.09   0.04
   8   6     0.02   0.11   0.15     0.21   0.18   0.31     0.39   0.10   0.02
   9   7     0.04  -0.07  -0.12     0.16  -0.11  -0.14    -0.25   0.02   0.06
  10   6    -0.05  -0.33  -0.06     0.13   0.05  -0.06    -0.16   0.02  -0.07
  11   7    -0.36  -0.21  -0.40     0.01   0.14  -0.11    -0.02  -0.08  -0.13
  12   7     0.03  -0.22   0.21     0.04   0.11   0.03     0.05   0.10  -0.01
  13   1    -0.04   0.00  -0.09    -0.07  -0.04  -0.16    -0.00  -0.06   0.03
  14   1    -0.08   0.13  -0.00    -0.10   0.22  -0.02     0.04  -0.09  -0.01
  15   1     0.04  -0.04  -0.03    -0.02  -0.01   0.05    -0.09   0.01   0.08
  16   1    -0.05   0.00  -0.06     0.02  -0.04   0.06     0.10   0.03   0.10
  17   1     0.03   0.02  -0.00     0.04  -0.01  -0.01    -0.08  -0.04   0.07
  18   1     0.06   0.06   0.04    -0.12  -0.12  -0.01     0.05   0.11   0.00
  19   1    -0.01  -0.03  -0.01    -0.04   0.03   0.06     0.01   0.05   0.08
  20   1    -0.01  -0.02   0.07    -0.05   0.04   0.06     0.02   0.03  -0.08
  21   1     0.01   0.05   0.03     0.16   0.16   0.01     0.28   0.13  -0.10
  22   1    -0.00   0.04   0.03     0.08   0.07   0.22     0.16   0.03   0.23
  23   1    -0.15   0.12   0.01    -0.01   0.09   0.01    -0.07  -0.05   0.07
  24   1    -0.23  -0.05  -0.09    -0.08   0.10   0.05     0.01   0.06   0.08
  25   1     0.01   0.02   0.05     0.02   0.04   0.00     0.03   0.07  -0.03
  26   1     0.01   0.02   0.01     0.01  -0.03  -0.02     0.02  -0.03   0.01
                     16                     17                     18
                        a                      a                      a 
 Frequencies --   494.1800               512.0242               538.7685
 Red. masses --    11.8352                 4.1344                10.4357
 Frc consts  --     0.0000                 0.0000                 0.0000
 IR Inten    --     6.3025               152.8237                15.3413
 Raman Activ --     0.0000                 0.0000                 0.0000
 Depolar     --     0.0000                 0.0000                 0.0000
 Atom AN      X      Y      Z        X      Y      Z        X      Y      Z
   1   6     0.04   0.06   0.01     0.00   0.03   0.01     0.01   0.21   0.03
   2   6     0.15  -0.11   0.08    -0.03   0.08  -0.04     0.23  -0.11   0.04
   3   6     0.10  -0.23  -0.25    -0.07   0.04  -0.01     0.10  -0.12   0.04
   4   6     0.15  -0.19   0.11    -0.02  -0.05   0.09    -0.06  -0.14  -0.15
   5   8    -0.08   0.36   0.18     0.07   0.07   0.07    -0.05   0.16  -0.34
   6   8     0.10  -0.18   0.35     0.02  -0.14  -0.04    -0.03  -0.01   0.24
   7   7    -0.00   0.09  -0.33     0.02  -0.02  -0.02    -0.06   0.05   0.06
   8   6     0.05   0.06   0.06    -0.10  -0.08  -0.04    -0.21   0.01  -0.05
   9   7    -0.07   0.05   0.08    -0.06  -0.01   0.02    -0.15  -0.07  -0.12
  10   6    -0.09   0.05  -0.00     0.12   0.06  -0.13    -0.13  -0.02  -0.08
  11   7    -0.05   0.04  -0.11     0.21  -0.18  -0.18     0.07  -0.21   0.16
  12   7    -0.22  -0.05  -0.17    -0.06   0.11   0.03     0.28   0.20   0.19
  13   1    -0.04  -0.02  -0.03     0.02   0.02   0.02    -0.07   0.00  -0.06
  14   1     0.01   0.08  -0.01    -0.00  -0.02   0.01     0.02   0.15  -0.02
  15   1    -0.05   0.08   0.05     0.01   0.02  -0.02     0.14  -0.06  -0.02
  16   1     0.11  -0.10   0.14    -0.02   0.02  -0.02    -0.01  -0.07  -0.05
  17   1     0.03  -0.06  -0.10    -0.03   0.03   0.00     0.00  -0.00   0.02
  18   1     0.08  -0.01   0.02     0.01  -0.02  -0.02     0.02   0.04   0.01
  19   1    -0.02   0.05   0.00     0.05  -0.01  -0.05    -0.04   0.04   0.09
  20   1     0.02   0.02  -0.15     0.01  -0.00  -0.03    -0.04   0.04   0.04
  21   1     0.03   0.04   0.01    -0.07  -0.03   0.01    -0.14   0.01   0.02
  22   1     0.03  -0.01   0.03    -0.01  -0.06  -0.04    -0.03  -0.06  -0.08
  23   1    -0.01   0.02  -0.03    -0.32   0.14   0.58     0.01  -0.21   0.02
  24   1    -0.03   0.00  -0.04    -0.16   0.29   0.40     0.12  -0.01   0.10
  25   1    -0.07  -0.09  -0.03     0.04   0.01  -0.04     0.10   0.22   0.02
  26   1    -0.20   0.05  -0.06    -0.03  -0.01   0.03    -0.08   0.03  -0.14
                     19                     20                     21
                        a                      a                      a 
 Frequencies --   560.1970               599.5816               622.3079
 Red. masses --    10.7068                10.9841                10.4278
 Frc consts  --     0.0000                 0.0000                 0.0000
 IR Inten    --    19.5607                25.9917                10.6523
 Raman Activ --     0.0000                 0.0000                 0.0000
 Depolar     --     0.0000                 0.0000                 0.0000
 Atom AN      X      Y      Z        X      Y      Z        X      Y      Z
   1   6    -0.05   0.02  -0.02    -0.02  -0.02   0.03    -0.04  -0.04  -0.04
   2   6    -0.19   0.25  -0.08    -0.04   0.05  -0.00    -0.08   0.05  -0.05
   3   6    -0.18   0.18   0.04     0.08   0.10   0.04     0.16   0.08  -0.05
   4   6    -0.08  -0.17   0.16     0.00  -0.05  -0.13     0.14   0.05   0.05
   5   8     0.22   0.20   0.12    -0.09  -0.02  -0.27     0.06  -0.00   0.19
   6   8     0.23  -0.26   0.03     0.14   0.17   0.12    -0.12  -0.17  -0.04
   7   7     0.05  -0.07   0.03    -0.02   0.01   0.11    -0.00  -0.01  -0.01
   8   6     0.02  -0.09   0.14    -0.01  -0.28   0.26     0.01   0.16  -0.16
   9   7    -0.01  -0.28  -0.25     0.14  -0.24  -0.04     0.01   0.04  -0.14
  10   6    -0.06   0.04  -0.23    -0.26   0.22   0.34    -0.53   0.07   0.39
  11   7    -0.05  -0.02   0.13     0.19   0.12  -0.12     0.05  -0.19  -0.16
  12   7    -0.02   0.19  -0.06    -0.13  -0.04  -0.27     0.25   0.03   0.01
  13   1     0.08   0.01  -0.05     0.05  -0.06  -0.12     0.02   0.07   0.12
  14   1    -0.06   0.01   0.01    -0.06   0.11   0.01     0.01  -0.16   0.01
  15   1    -0.05   0.06  -0.02     0.03  -0.02  -0.02    -0.09   0.03   0.02
  16   1    -0.05   0.10  -0.04    -0.05   0.02  -0.05     0.02  -0.00   0.05
  17   1    -0.08   0.09   0.03     0.02   0.03   0.02     0.07  -0.00  -0.03
  18   1     0.07  -0.02  -0.02     0.17   0.08  -0.14     0.04  -0.15  -0.13
  19   1     0.04  -0.05  -0.10    -0.03  -0.01   0.00    -0.01  -0.02  -0.04
  20   1     0.03  -0.04  -0.01    -0.01  -0.01   0.09    -0.01  -0.01   0.07
  21   1     0.08   0.09  -0.03    -0.03  -0.07   0.08     0.07   0.06  -0.08
  22   1     0.04  -0.03   0.18    -0.01  -0.08   0.04     0.01   0.06   0.04
  23   1     0.09  -0.20  -0.16    -0.02   0.05   0.07    -0.04  -0.10   0.03
  24   1     0.13  -0.02   0.01     0.00   0.06   0.01     0.01  -0.02   0.01
  25   1    -0.08   0.13   0.05    -0.06  -0.18  -0.04     0.18   0.10  -0.11
  26   1    -0.04   0.01   0.02    -0.02   0.01  -0.09     0.01  -0.00   0.05
                     22                     23                     24
                        a                      a                      a 
 Frequencies --   665.7929               674.7300               712.9730
 Red. masses --     8.8365                 3.3390                 9.3120
 Frc consts  --     0.0000                 0.0000                 0.0000
 IR Inten    --    11.5272                13.1205                 3.3888
 Raman Activ --     0.0000                 0.0000                 0.0000
 Depolar     --     0.0000                 0.0000                 0.0000
 Atom AN      X      Y      Z        X      Y      Z        X      Y      Z
   1   6    -0.08  -0.08  -0.09     0.03  -0.03   0.03     0.01   0.11  -0.01
   2   6    -0.15   0.14  -0.11     0.05  -0.04   0.02    -0.05   0.06   0.02
   3   6     0.31   0.21  -0.00     0.04  -0.02  -0.05    -0.40  -0.10   0.12
   4   6     0.11  -0.21  -0.16     0.00   0.09   0.01    -0.12  -0.18  -0.03
   5   8    -0.13   0.03  -0.28     0.06   0.04   0.14    -0.00   0.05  -0.15
   6   8     0.09  -0.18   0.19     0.04   0.13  -0.12     0.11  -0.21   0.14
   7   7    -0.01  -0.02   0.17     0.01  -0.02  -0.08     0.01  -0.00   0.07
   8   6     0.02   0.02  -0.05    -0.02  -0.14   0.12     0.03   0.25  -0.20
   9   7    -0.14   0.11   0.21     0.02  -0.12  -0.09     0.25   0.03  -0.21
  10   6     0.12  -0.04  -0.10    -0.12   0.05  -0.02     0.07  -0.01   0.23
  11   7    -0.05   0.05   0.02    -0.05  -0.03   0.04     0.08   0.10   0.05
  12   7    -0.09  -0.02   0.05    -0.10   0.10  -0.02    -0.05  -0.15   0.12
  13   1     0.09   0.10   0.16     0.00  -0.06  -0.08    -0.05   0.04   0.04
  14   1    -0.01  -0.26   0.03    -0.01   0.08  -0.01     0.03   0.02  -0.01
  15   1    -0.15   0.03   0.02     0.04  -0.01  -0.01     0.04   0.01  -0.02
  16   1     0.03   0.02   0.06    -0.01  -0.02  -0.01    -0.03   0.08  -0.06
  17   1     0.08   0.06   0.03     0.02  -0.02  -0.03    -0.15   0.02   0.06
  18   1    -0.08   0.05   0.19    -0.35   0.14   0.49     0.03   0.01   0.03
  19   1    -0.03  -0.04  -0.03    -0.01   0.01   0.02     0.06   0.01   0.02
  20   1    -0.05   0.01   0.24    -0.02   0.02  -0.01     0.05  -0.01  -0.14
  21   1     0.12   0.01  -0.07    -0.02  -0.02   0.04    -0.03   0.04  -0.03
  22   1     0.01   0.03   0.10     0.00  -0.06   0.02    -0.02   0.10  -0.12
  23   1     0.00   0.04  -0.01     0.00  -0.08  -0.03     0.04   0.17   0.02
  24   1    -0.02   0.01   0.00     0.02   0.02   0.04    -0.08  -0.05  -0.08
  25   1     0.14  -0.07  -0.13     0.44  -0.09  -0.44     0.26  -0.21  -0.21
  26   1    -0.08   0.03  -0.18     0.02  -0.01   0.08    -0.06   0.00  -0.07
                     25                     26                     27
                        a                      a                      a 
 Frequencies --   730.5021               862.2779               870.6464
 Red. masses --     3.9273                 6.6292                 8.1896
 Frc consts  --     0.0000                 0.0000                 0.0000
 IR Inten    --   306.7726                 5.2046                39.1343
 Raman Activ --     0.0000                 0.0000                 0.0000
 Depolar     --     0.0000                 0.0000                 0.0000
 Atom AN      X      Y      Z        X      Y      Z        X      Y      Z
   1   6     0.01  -0.03  -0.00     0.15   0.16  -0.02    -0.09   0.17  -0.11
   2   6     0.03  -0.03   0.00    -0.23   0.01  -0.30     0.23  -0.15  -0.26
   3   6     0.07   0.01  -0.02    -0.11  -0.24   0.00     0.15  -0.06  -0.09
   4   6     0.04   0.11   0.06     0.14   0.03  -0.03    -0.42  -0.08   0.10
   5   8    -0.01  -0.05   0.02    -0.04  -0.02  -0.03     0.09   0.05   0.07
   6   8    -0.07   0.09   0.03    -0.05  -0.00   0.02     0.01   0.15  -0.07
   7   7    -0.02   0.03  -0.01     0.03  -0.04   0.24     0.01  -0.00   0.06
   8   6    -0.01  -0.06   0.06     0.24   0.04   0.17    -0.13   0.07   0.04
   9   7    -0.07  -0.03   0.01     0.08   0.10   0.03    -0.04  -0.24  -0.15
  10   6     0.12  -0.05  -0.18    -0.05   0.03  -0.07     0.06  -0.02   0.06
  11   7    -0.09   0.00   0.09    -0.06  -0.10  -0.02     0.10   0.12   0.05
  12   7    -0.24   0.12   0.20    -0.02   0.10  -0.06     0.03  -0.09   0.05
  13   1     0.01  -0.02  -0.02     0.16   0.07  -0.03     0.01   0.15   0.15
  14   1    -0.00   0.00  -0.00    -0.18   0.00   0.09    -0.11  -0.17   0.06
  15   1    -0.01  -0.00   0.01    -0.30   0.12   0.02    -0.24   0.07   0.06
  16   1     0.02  -0.02   0.02     0.13   0.02   0.12     0.26  -0.14   0.23
  17   1     0.04  -0.02  -0.02     0.04  -0.17   0.03    -0.04   0.08   0.05
  18   1     0.36  -0.16  -0.55    -0.02  -0.03   0.01     0.02   0.13  -0.03
  19   1    -0.00  -0.00  -0.03     0.05   0.01   0.10     0.00  -0.01  -0.01
  20   1     0.02  -0.03   0.00     0.03  -0.01  -0.04    -0.02   0.00   0.09
  21   1     0.01  -0.01   0.01    -0.24  -0.11   0.21    -0.04   0.08  -0.00
  22   1     0.01  -0.03   0.03     0.08  -0.13  -0.32     0.00  -0.03   0.03
  23   1     0.03  -0.04  -0.06    -0.02  -0.09  -0.01     0.03   0.09   0.03
  24   1     0.03  -0.01   0.00     0.02  -0.02   0.00    -0.01   0.01  -0.02
  25   1     0.38  -0.09  -0.36     0.00   0.09  -0.03    -0.01  -0.11   0.03
  26   1     0.04   0.01   0.01    -0.02   0.00  -0.04     0.04  -0.02   0.13
                     28                     29                     30
                        a                      a                      a 
 Frequencies --   904.2205               936.5667               973.5581
 Red. masses --     7.3216                 8.1977                 5.9272
 Frc consts  --     0.0000                 0.0000                 0.0000
 IR Inten    --    25.2023                35.3407               119.8958
 Raman Activ --     0.0000                 0.0000                 0.0000
 Depolar     --     0.0000                 0.0000                 0.0000
 Atom AN      X      Y      Z        X      Y      Z        X      Y      Z
   1   6     0.01  -0.43   0.05    -0.04   0.13   0.15    -0.09   0.15   0.13
   2   6     0.23  -0.14  -0.07    -0.28  -0.11   0.16    -0.01  -0.19   0.05
   3   6    -0.03   0.32  -0.00     0.20   0.14   0.01    -0.01   0.15  -0.10
   4   6    -0.14  -0.08  -0.00    -0.32  -0.09   0.02     0.16   0.08   0.05
   5   8     0.01   0.01  -0.03     0.05   0.04   0.05    -0.03  -0.02  -0.09
   6   8     0.02  -0.12   0.02     0.03  -0.05   0.00     0.02  -0.00  -0.01
   7   7    -0.05   0.08  -0.01     0.04  -0.02  -0.27    -0.18   0.18   0.28
   8   6     0.02   0.15   0.16     0.42   0.03  -0.19     0.15  -0.04  -0.18
   9   7     0.11   0.22   0.01    -0.00  -0.03   0.03    -0.10  -0.15   0.02
  10   6    -0.03   0.03  -0.02    -0.00   0.00  -0.02     0.00  -0.01   0.02
  11   7    -0.03  -0.11  -0.00     0.01   0.00   0.02    -0.01   0.08  -0.02
  12   7     0.01   0.06  -0.02    -0.00   0.02   0.00     0.01  -0.04   0.01
  13   1    -0.11  -0.24  -0.16    -0.10   0.00   0.03    -0.18   0.02   0.08
  14   1    -0.14   0.09   0.02    -0.06   0.09   0.04    -0.01   0.05   0.03
  15   1    -0.08   0.01   0.04     0.03  -0.12   0.01    -0.00   0.01   0.01
  16   1     0.20   0.05   0.08    -0.21  -0.13  -0.03    -0.04  -0.19   0.07
  17   1    -0.10   0.19   0.06     0.04   0.02   0.10     0.02   0.02  -0.09
  18   1     0.01   0.02   0.01     0.05   0.09  -0.05    -0.05  -0.05   0.07
  19   1     0.03  -0.08  -0.27    -0.15  -0.00  -0.02     0.25  -0.11  -0.43
  20   1     0.03  -0.07   0.07    -0.11   0.06   0.24     0.22  -0.22  -0.24
  21   1    -0.18  -0.05   0.14    -0.08  -0.07   0.05     0.02   0.01  -0.04
  22   1    -0.10   0.13  -0.18     0.15  -0.12  -0.30     0.14  -0.16  -0.04
  23   1    -0.01  -0.01   0.01    -0.00  -0.00   0.01    -0.00  -0.08  -0.02
  24   1    -0.04  -0.05  -0.03     0.01  -0.01  -0.01     0.07   0.07   0.05
  25   1     0.01   0.08  -0.02     0.02  -0.01  -0.01    -0.01  -0.07   0.02
  26   1    -0.01  -0.00  -0.01     0.02  -0.01   0.07     0.00   0.00  -0.02
                     31                     32                     33
                        a                      a                      a 
 Frequencies --  1003.2167              1014.5887              1029.1464
 Red. masses --     7.2147                 6.3043                 7.4982
 Frc consts  --     0.0000                 0.0000                 0.0000
 IR Inten    --     3.5223                46.6196               107.1947
 Raman Activ --     0.0000                 0.0000                 0.0000
 Depolar     --     0.0000                 0.0000                 0.0000
 Atom AN      X      Y      Z        X      Y      Z        X      Y      Z
   1   6    -0.24   0.21  -0.22     0.03  -0.07  -0.04     0.03   0.04  -0.04
   2   6     0.21  -0.08   0.17     0.05  -0.04  -0.02     0.04  -0.11   0.02
   3   6    -0.11   0.07   0.18    -0.11   0.09   0.16    -0.07   0.10   0.17
   4   6     0.06  -0.05  -0.03     0.20   0.15   0.03     0.19   0.30   0.21
   5   8    -0.00  -0.02  -0.01    -0.03  -0.01  -0.06    -0.10  -0.01  -0.25
   6   8    -0.03   0.03  -0.02     0.04  -0.05   0.03     0.08  -0.11   0.06
   7   7    -0.06  -0.00  -0.17     0.06  -0.05  -0.21     0.01  -0.01  -0.22
   8   6     0.09  -0.11   0.16    -0.04   0.18  -0.01    -0.01  -0.01   0.05
   9   7     0.27   0.02   0.10    -0.11  -0.13  -0.03    -0.21  -0.12  -0.11
  10   6     0.02   0.07  -0.01    -0.02  -0.11   0.01    -0.01   0.00   0.00
  11   7    -0.14  -0.15  -0.08    -0.04   0.32  -0.12     0.17  -0.07   0.17
  12   7    -0.03   0.14  -0.08     0.05  -0.20   0.12    -0.05   0.04  -0.08
  13   1    -0.02   0.24   0.27    -0.06  -0.03   0.01     0.01   0.04   0.04
  14   1    -0.05  -0.30   0.03    -0.09  -0.02   0.03    -0.11  -0.05   0.05
  15   1     0.02  -0.26   0.09    -0.08  -0.10   0.05    -0.08  -0.16   0.07
  16   1     0.03   0.04  -0.02     0.12   0.17  -0.02     0.08   0.08   0.01
  17   1    -0.12   0.16  -0.00    -0.01   0.00   0.06     0.02  -0.01   0.02
  18   1     0.00   0.02  -0.01    -0.01  -0.09   0.03    -0.04  -0.18   0.08
  19   1     0.01   0.02  -0.01    -0.11   0.02   0.05    -0.06  -0.00  -0.04
  20   1     0.00   0.00  -0.14    -0.08   0.07   0.10    -0.04   0.03   0.02
  21   1     0.07  -0.24   0.08    -0.16   0.08   0.06    -0.06   0.13  -0.00
  22   1    -0.03   0.01  -0.06     0.06  -0.08  -0.07     0.11  -0.18   0.01
  23   1    -0.04  -0.16  -0.04    -0.03  -0.31  -0.07     0.07   0.35   0.08
  24   1     0.01  -0.01   0.02     0.26   0.31   0.26    -0.17  -0.21  -0.20
  25   1    -0.01   0.02  -0.02    -0.02  -0.23   0.07    -0.01   0.19  -0.03
  26   1    -0.03   0.01  -0.07     0.01   0.00  -0.00     0.07  -0.01   0.09
                     34                     35                     36
                        a                      a                      a 
 Frequencies --  1052.4294              1067.3130              1084.7431
 Red. masses --     9.6492                 6.4515                 5.3864
 Frc consts  --     0.0000                 0.0000                 0.0000
 IR Inten    --   156.0688                24.9497                16.5938
 Raman Activ --     0.0000                 0.0000                 0.0000
 Depolar     --     0.0000                 0.0000                 0.0000
 Atom AN      X      Y      Z        X      Y      Z        X      Y      Z
   1   6     0.01   0.02   0.01     0.30   0.02  -0.22     0.22   0.21   0.03
   2   6    -0.00  -0.07   0.02    -0.20  -0.09   0.16    -0.09  -0.27  -0.10
   3   6    -0.12   0.06   0.08     0.19  -0.03   0.13    -0.24   0.02   0.09
   4   6     0.25  -0.32  -0.36    -0.17  -0.03  -0.11     0.10   0.04   0.03
   5   8     0.17  -0.04   0.38     0.03   0.03   0.05    -0.02  -0.02  -0.03
   6   8    -0.11   0.28  -0.10     0.01  -0.05   0.02    -0.01  -0.00  -0.01
   7   7    -0.01   0.03  -0.03    -0.18   0.09  -0.08     0.07   0.09  -0.13
   8   6     0.01   0.00  -0.01    -0.14   0.11   0.19    -0.16  -0.09   0.01
   9   7    -0.16  -0.05  -0.04    -0.04   0.11  -0.08     0.15   0.07   0.03
  10   6    -0.06  -0.05  -0.04    -0.04  -0.04  -0.01     0.05   0.04   0.03
  11   7     0.13   0.08   0.09     0.03   0.08   0.00    -0.08  -0.08  -0.06
  12   7    -0.00  -0.08   0.03     0.03  -0.09   0.05    -0.00   0.06  -0.02
  13   1    -0.04  -0.00   0.01     0.43   0.07  -0.11     0.06   0.04  -0.02
  14   1    -0.07  -0.00   0.03     0.07  -0.09  -0.03     0.26   0.08  -0.08
  15   1    -0.05  -0.08   0.03    -0.02  -0.31   0.06    -0.07   0.13  -0.02
  16   1     0.04   0.10  -0.02    -0.12  -0.01  -0.05     0.00  -0.23   0.12
  17   1    -0.08   0.06   0.12     0.11  -0.10   0.01    -0.06  -0.08   0.36
  18   1     0.00   0.03  -0.05     0.01   0.06   0.00    -0.01  -0.02   0.01
  19   1    -0.02  -0.02  -0.07     0.11  -0.05  -0.24    -0.13  -0.09  -0.28
  20   1    -0.01  -0.01   0.06     0.10  -0.12  -0.19    -0.05  -0.01   0.36
  21   1    -0.06   0.12  -0.01    -0.10   0.07   0.06     0.12  -0.02  -0.06
  22   1     0.10  -0.14  -0.01    -0.06   0.05   0.01    -0.05   0.05   0.16
  23   1     0.04   0.18   0.04     0.01   0.01   0.00    -0.02  -0.07  -0.02
  24   1    -0.04  -0.04  -0.06     0.02   0.05   0.03    -0.00   0.00   0.01
  25   1     0.02   0.12  -0.02     0.00  -0.01   0.02    -0.01  -0.04   0.01
  26   1    -0.19   0.05  -0.33     0.03  -0.01   0.08    -0.02   0.00  -0.04
                     37                     38                     39
                        a                      a                      a 
 Frequencies --  1112.5248              1123.9621              1142.3677
 Red. masses --     7.3018                10.1740                 3.7486
 Frc consts  --     0.0000                 0.0000                 0.0000
 IR Inten    --    68.5041                49.7574                 7.0193
 Raman Activ --     0.0000                 0.0000                 0.0000
 Depolar     --     0.0000                 0.0000                 0.0000
 Atom AN      X      Y      Z        X      Y      Z        X      Y      Z
   1   6    -0.08   0.05   0.03     0.09  -0.05  -0.03     0.02   0.04   0.16
   2   6     0.04  -0.04  -0.01    -0.09  -0.01   0.03     0.01  -0.11  -0.03
   3   6    -0.05   0.02  -0.04     0.06   0.05  -0.03    -0.06   0.13   0.01
   4   6    -0.07   0.04   0.02     0.08  -0.29   0.66     0.08   0.07  -0.11
   5   8    -0.01   0.01  -0.04     0.00  -0.10  -0.20    -0.00   0.00   0.03
   6   8     0.06  -0.01   0.05    -0.08   0.29  -0.18    -0.00  -0.07   0.03
   7   7     0.03  -0.02   0.04     0.01  -0.04  -0.04     0.02  -0.10   0.02
   8   6     0.08  -0.20   0.06    -0.00   0.17  -0.04    -0.02  -0.17  -0.18
   9   7     0.09   0.25  -0.10     0.04  -0.08   0.03    -0.02   0.19  -0.04
  10   6    -0.20  -0.20  -0.11    -0.02   0.02   0.00     0.07   0.05   0.06
  11   7     0.12   0.31   0.02    -0.01   0.00  -0.01    -0.06  -0.08  -0.03
  12   7    -0.09  -0.36   0.02     0.00  -0.01  -0.01     0.06   0.06   0.04
  13   1     0.07   0.03  -0.01     0.14  -0.01  -0.07     0.36  -0.02  -0.19
  14   1     0.02  -0.02  -0.00     0.02   0.01  -0.01    -0.24   0.07   0.12
  15   1     0.02   0.06  -0.01    -0.00  -0.06   0.01    -0.10  -0.15   0.05
  16   1    -0.05  -0.21   0.07    -0.08  -0.12   0.03    -0.05  -0.29   0.12
  17   1    -0.10   0.12  -0.01    -0.04   0.09  -0.07    -0.24   0.36  -0.10
  18   1    -0.00  -0.18   0.02    -0.03  -0.06   0.03     0.01   0.01  -0.01
  19   1    -0.01   0.01   0.06     0.00   0.02   0.06    -0.00   0.06   0.23
  20   1    -0.01   0.02   0.01    -0.01   0.02  -0.05    -0.03   0.07  -0.12
  21   1     0.08  -0.17   0.02    -0.04   0.03   0.02     0.00   0.19  -0.12
  22   1    -0.02   0.01   0.02    -0.04   0.10  -0.03     0.04  -0.06   0.10
  23   1     0.03   0.07   0.01    -0.01  -0.02  -0.00    -0.01  -0.05  -0.02
  24   1     0.12   0.16   0.10     0.01   0.01   0.01    -0.01  -0.03  -0.02
  25   1     0.07   0.51  -0.10     0.01   0.05  -0.01    -0.01  -0.22   0.05
  26   1     0.01  -0.00   0.02    -0.15   0.03  -0.34     0.01  -0.00   0.02
                     40                     41                     42
                        a                      a                      a 
 Frequencies --  1159.9296              1198.5666              1203.8193
 Red. masses --     8.0044                 5.5224                 8.2281
 Frc consts  --     0.0000                 0.0000                 0.0000
 IR Inten    --     5.6436                23.3912                31.3295
 Raman Activ --     0.0000                 0.0000                 0.0000
 Depolar     --     0.0000                 0.0000                 0.0000
 Atom AN      X      Y      Z        X      Y      Z        X      Y      Z
   1   6    -0.11   0.07   0.26    -0.24  -0.08  -0.09    -0.04  -0.04  -0.11
   2   6     0.08   0.17  -0.14     0.19   0.21   0.19     0.02   0.02   0.13
   3   6     0.17  -0.15   0.36    -0.07  -0.31  -0.14    -0.04  -0.05  -0.22
   4   6    -0.08  -0.12   0.11     0.10   0.07   0.02    -0.08  -0.06   0.22
   5   8    -0.00  -0.02  -0.07    -0.01   0.01   0.00     0.01  -0.02  -0.05
   6   8    -0.04   0.06  -0.04    -0.00   0.03   0.00    -0.03  -0.02  -0.03
   7   7    -0.15   0.02  -0.22     0.03   0.14   0.02     0.06   0.06   0.08
   8   6     0.00  -0.24  -0.23     0.14   0.04  -0.06    -0.04  -0.20   0.19
   9   7     0.11   0.19   0.02    -0.14  -0.09  -0.03     0.03   0.49  -0.29
  10   6    -0.00   0.01   0.01    -0.01  -0.01  -0.01    -0.01   0.01   0.01
  11   7    -0.04   0.00  -0.04     0.03   0.02   0.03    -0.03  -0.02  -0.02
  12   7     0.01  -0.07   0.02     0.02   0.03   0.01     0.10  -0.02   0.11
  13   1     0.03  -0.04  -0.07     0.34   0.05  -0.11    -0.10   0.01   0.06
  14   1    -0.27   0.12   0.13    -0.31  -0.12   0.10    -0.02  -0.10  -0.00
  15   1    -0.08   0.02   0.02     0.22   0.10  -0.03     0.09  -0.01  -0.01
  16   1     0.16   0.23  -0.01    -0.12  -0.10  -0.03    -0.02   0.11  -0.07
  17   1     0.14  -0.19   0.17    -0.10  -0.01   0.24     0.03  -0.07  -0.03
  18   1    -0.01   0.05   0.00    -0.02  -0.09   0.03     0.00   0.05  -0.00
  19   1     0.04  -0.03  -0.16    -0.01  -0.06  -0.24    -0.02  -0.02  -0.06
  20   1     0.03  -0.06  -0.14     0.00  -0.05   0.27    -0.00  -0.01   0.15
  21   1     0.10   0.04  -0.13    -0.05  -0.02   0.03    -0.03   0.10   0.00
  22   1     0.00   0.00   0.13    -0.08   0.15  -0.10     0.25  -0.43   0.06
  23   1    -0.01  -0.04  -0.01     0.00   0.01   0.01     0.00  -0.00  -0.02
  24   1     0.02   0.02   0.02    -0.00  -0.01  -0.01     0.01  -0.01  -0.02
  25   1     0.02   0.06  -0.01    -0.01  -0.08   0.02    -0.00  -0.22   0.06
  26   1    -0.00  -0.00  -0.02     0.01   0.00   0.02    -0.05   0.01  -0.09
                     43                     44                     45
                        a                      a                      a 
 Frequencies --  1226.5315              1242.0927              1271.9067
 Red. masses --     6.6039                 4.9157                 4.4759
 Frc consts  --     0.0000                 0.0000                 0.0000
 IR Inten    --    31.3012                24.0900                64.3140
 Raman Activ --     0.0000                 0.0000                 0.0000
 Depolar     --     0.0000                 0.0000                 0.0000
 Atom AN      X      Y      Z        X      Y      Z        X      Y      Z
   1   6     0.11   0.10   0.04    -0.01   0.12   0.09     0.11   0.10   0.15
   2   6     0.02  -0.12   0.14     0.09  -0.13  -0.00    -0.15  -0.01  -0.03
   3   6    -0.17   0.04  -0.38    -0.17   0.20  -0.01     0.15  -0.21  -0.26
   4   6    -0.09  -0.04   0.00    -0.08   0.12   0.04     0.11  -0.05   0.07
   5   8    -0.02   0.01  -0.00     0.08  -0.06   0.06    -0.05   0.05  -0.03
   6   8     0.03  -0.01   0.00     0.01  -0.10  -0.00    -0.02   0.06  -0.01
   7   7     0.12   0.08   0.16     0.08   0.00   0.03    -0.03   0.03   0.06
   8   6    -0.12   0.01  -0.17     0.12  -0.15   0.00     0.06  -0.10   0.02
   9   7     0.21  -0.10   0.22    -0.19   0.05  -0.15    -0.12   0.05  -0.12
  10   6     0.09   0.05   0.07    -0.12  -0.07  -0.10    -0.07  -0.04  -0.06
  11   7    -0.07  -0.02  -0.05     0.08   0.05   0.06     0.04   0.03   0.03
  12   7    -0.10  -0.07  -0.07     0.08   0.05   0.06     0.05   0.04   0.04
  13   1     0.07   0.02  -0.03     0.09   0.03  -0.02    -0.13  -0.02   0.04
  14   1    -0.23   0.02   0.11    -0.07   0.03   0.05     0.09   0.10  -0.00
  15   1    -0.05  -0.30   0.09    -0.05  -0.09   0.04    -0.17  -0.32   0.09
  16   1     0.07   0.26  -0.09     0.08   0.03   0.02     0.10   0.33  -0.09
  17   1     0.08  -0.14  -0.16     0.25  -0.29  -0.28    -0.26   0.30   0.20
  18   1     0.02   0.02  -0.02     0.00   0.05  -0.00    -0.01  -0.12   0.02
  19   1    -0.04  -0.02  -0.03    -0.05  -0.00   0.01     0.05   0.00  -0.01
  20   1    -0.01   0.01   0.23    -0.02   0.04   0.06     0.02  -0.04   0.04
  21   1    -0.02   0.18  -0.09     0.13  -0.26   0.02     0.13  -0.23   0.01
  22   1    -0.00   0.01   0.09    -0.21   0.32  -0.02    -0.13   0.19   0.01
  23   1    -0.02  -0.09  -0.02     0.02   0.09   0.03     0.02   0.05   0.01
  24   1     0.03   0.02   0.02    -0.02  -0.00  -0.01    -0.01   0.00  -0.00
  25   1     0.03   0.30  -0.08    -0.02  -0.24   0.06    -0.01  -0.15   0.04
  26   1     0.01  -0.01   0.05    -0.13   0.03  -0.27     0.07  -0.01   0.14
                     46                     47                     48
                        a                      a                      a 
 Frequencies --  1288.3561              1317.1525              1329.8559
 Red. masses --     6.4030                 4.4761                 3.9806
 Frc consts  --     0.0000                 0.0000                 0.0000
 IR Inten    --    63.8474                25.8055                20.4636
 Raman Activ --     0.0000                 0.0000                 0.0000
 Depolar     --     0.0000                 0.0000                 0.0000
 Atom AN      X      Y      Z        X      Y      Z        X      Y      Z
   1   6     0.06  -0.01  -0.03     0.30   0.04  -0.20     0.28  -0.05  -0.04
   2   6    -0.03   0.08  -0.02    -0.01   0.12   0.03     0.02   0.11   0.04
   3   6     0.16  -0.10  -0.10    -0.05   0.08  -0.01    -0.03   0.12  -0.12
   4   6    -0.31   0.42  -0.04     0.08  -0.14   0.01     0.03   0.04   0.01
   5   8     0.14  -0.13   0.10    -0.04   0.04  -0.03    -0.00  -0.00   0.01
   6   8     0.13  -0.08   0.07    -0.02   0.06  -0.01    -0.01  -0.05  -0.01
   7   7    -0.07  -0.02   0.00    -0.02  -0.04  -0.00    -0.06  -0.07   0.01
   8   6    -0.01  -0.06   0.00     0.12  -0.30   0.04    -0.24   0.24  -0.01
   9   7     0.03  -0.04   0.02    -0.06   0.08  -0.02     0.03  -0.05  -0.01
  10   6     0.12   0.03   0.10    -0.01   0.02  -0.00    -0.04  -0.04  -0.04
  11   7    -0.04  -0.03  -0.03     0.00   0.01   0.00     0.02   0.01   0.01
  12   7    -0.05   0.02  -0.06     0.02  -0.02   0.03     0.00   0.01  -0.00
  13   1    -0.12  -0.01   0.05    -0.39   0.00   0.18    -0.13  -0.06   0.00
  14   1     0.00   0.01  -0.00    -0.26  -0.06   0.09    -0.38  -0.00   0.16
  15   1    -0.01  -0.08   0.01     0.01  -0.02   0.01     0.05  -0.08   0.01
  16   1    -0.01  -0.00  -0.00    -0.14  -0.22   0.03    -0.08  -0.19   0.07
  17   1    -0.06   0.06   0.22     0.06  -0.10   0.11     0.05  -0.11   0.31
  18   1    -0.04  -0.32   0.07     0.00  -0.05   0.01     0.01   0.13  -0.03
  19   1     0.05   0.02   0.05     0.01   0.01   0.05     0.04   0.04   0.12
  20   1     0.02  -0.03  -0.06    -0.00   0.00  -0.05     0.01  -0.01  -0.10
  21   1    -0.07   0.12  -0.01    -0.24   0.31   0.02     0.32  -0.43  -0.03
  22   1    -0.02   0.02   0.02    -0.22   0.31   0.06     0.11  -0.18   0.04
  23   1    -0.02  -0.07  -0.01    -0.00  -0.02   0.00     0.01   0.04  -0.00
  24   1    -0.00   0.00   0.01    -0.00   0.00   0.00     0.01  -0.00  -0.01
  25   1    -0.01   0.04  -0.01     0.01  -0.02   0.01    -0.00  -0.00   0.00
  26   1    -0.26   0.05  -0.49     0.07  -0.01   0.13    -0.00   0.01  -0.02
                     49                     50                     51
                        a                      a                      a 
 Frequencies --  1341.4986              1344.3340              1354.4865
 Red. masses --     4.6033                 5.2029                 4.2849
 Frc consts  --     0.0000                 0.0000                 0.0000
 IR Inten    --    18.8696                27.7073               318.8394
 Raman Activ --     0.0000                 0.0000                 0.0000
 Depolar     --     0.0000                 0.0000                 0.0000
 Atom AN      X      Y      Z        X      Y      Z        X      Y      Z
   1   6    -0.21  -0.10   0.13     0.19  -0.04  -0.03     0.02  -0.05   0.04
   2   6     0.19   0.38  -0.16    -0.06   0.23  -0.08     0.05   0.15  -0.06
   3   6    -0.13  -0.00  -0.11     0.02  -0.36   0.26    -0.07   0.00   0.10
   4   6     0.06   0.02   0.03     0.00   0.15   0.00    -0.14  -0.26  -0.15
   5   8    -0.01  -0.01  -0.00     0.03  -0.04   0.01    -0.01   0.07   0.01
   6   8    -0.03  -0.05  -0.01    -0.03  -0.08   0.00     0.09   0.24   0.03
   7   7    -0.01  -0.01   0.03     0.09   0.15  -0.04     0.05   0.04  -0.01
   8   6     0.08   0.00   0.00    -0.07   0.04   0.00    -0.06   0.08   0.02
   9   7     0.02  -0.00   0.03     0.03  -0.02   0.01    -0.02   0.04  -0.05
  10   6    -0.03  -0.02  -0.02    -0.03  -0.03  -0.02     0.09   0.06   0.06
  11   7     0.00   0.00   0.00     0.01   0.01   0.00    -0.02  -0.03  -0.02
  12   7    -0.00  -0.01   0.00    -0.01  -0.02  -0.00     0.00   0.06  -0.01
  13   1     0.01  -0.04  -0.04    -0.21  -0.05   0.06    -0.02  -0.04  -0.03
  14   1     0.32   0.03  -0.13    -0.11   0.02   0.05     0.00   0.01   0.00
  15   1    -0.16  -0.52   0.13    -0.08  -0.13   0.03    -0.05  -0.15   0.04
  16   1    -0.03  -0.27   0.13    -0.09  -0.15   0.04    -0.03  -0.14   0.06
  17   1     0.08  -0.19   0.18    -0.14   0.22  -0.49     0.10  -0.11  -0.22
  18   1     0.01   0.19  -0.04     0.01   0.23  -0.04    -0.04  -0.70   0.13
  19   1     0.01   0.00   0.02    -0.05  -0.06  -0.24    -0.03  -0.02  -0.06
  20   1     0.01  -0.01   0.00    -0.01   0.01   0.22    -0.01   0.01   0.08
  21   1    -0.10   0.10   0.03     0.05  -0.08  -0.00     0.12  -0.13  -0.02
  22   1     0.04  -0.04  -0.02     0.01  -0.02   0.04     0.05  -0.09  -0.04
  23   1     0.01   0.03  -0.01     0.01   0.02  -0.00    -0.02  -0.07   0.01
  24   1     0.01   0.01   0.01     0.02   0.01   0.00    -0.04  -0.02  -0.02
  25   1     0.01   0.02  -0.01     0.00   0.04  -0.01    -0.02  -0.10   0.03
  26   1     0.00  -0.00   0.00    -0.05   0.01  -0.11     0.05  -0.01   0.14
                     52                     53                     54
                        a                      a                      a 
 Frequencies --  1415.4168              1460.3480              1477.7343
 Red. masses --     8.3328                 2.0845                 3.1796
 Frc consts  --     0.0000                 0.0000                 0.0000
 IR Inten    --   229.7133                 3.8980                55.4346
 Raman Activ --     0.0000                 0.0000                 0.0000
 Depolar     --     0.0000                 0.0000                 0.0000
 Atom AN      X      Y      Z        X      Y      Z        X      Y      Z
   1   6    -0.00  -0.01   0.02    -0.01  -0.02  -0.03     0.02   0.16   0.07
   2   6    -0.01   0.01  -0.02    -0.27   0.05  -0.06     0.03   0.01   0.00
   3   6    -0.00   0.02   0.01    -0.02  -0.00   0.00    -0.00  -0.01   0.01
   4   6     0.08  -0.01   0.02     0.01   0.00  -0.01     0.00   0.03   0.02
   5   8     0.01   0.01   0.01    -0.00  -0.00  -0.00    -0.01  -0.01  -0.01
   6   8    -0.02  -0.03  -0.01    -0.00   0.00   0.00    -0.00  -0.01  -0.00
   7   7     0.00  -0.01  -0.00     0.01   0.00   0.00    -0.02   0.00  -0.02
   8   6     0.04  -0.04   0.11    -0.02  -0.04   0.04    -0.09  -0.04   0.13
   9   7    -0.33   0.02  -0.28     0.04  -0.00   0.05     0.12  -0.03   0.12
  10   6     0.38   0.34   0.24    -0.06  -0.05  -0.05    -0.16  -0.11  -0.15
  11   7    -0.03   0.03  -0.04     0.02   0.03   0.01     0.11   0.13   0.04
  12   7    -0.05  -0.28   0.04     0.01   0.02   0.00     0.02   0.04   0.01
  13   1     0.00  -0.00   0.00     0.02   0.06   0.09    -0.13  -0.20  -0.32
  14   1     0.02   0.01  -0.01    -0.04   0.10  -0.01     0.06  -0.39   0.08
  15   1     0.02  -0.03  -0.01     0.56  -0.22  -0.24    -0.07   0.03   0.03
  16   1     0.02  -0.01   0.03     0.42   0.02   0.48    -0.05   0.00  -0.05
  17   1     0.01  -0.00  -0.00    -0.01   0.01  -0.02    -0.01   0.01   0.00
  18   1    -0.01   0.15  -0.04     0.00  -0.01   0.00     0.01   0.01   0.00
  19   1    -0.01   0.00   0.01     0.00  -0.00  -0.01     0.05   0.02   0.02
  20   1    -0.01   0.01  -0.00     0.00  -0.00   0.01     0.02  -0.03   0.02
  21   1     0.17  -0.08  -0.04     0.08   0.11  -0.07     0.30   0.28  -0.21
  22   1    -0.06   0.05  -0.17    -0.04   0.00  -0.14    -0.08  -0.02  -0.42
  23   1    -0.11  -0.39   0.06    -0.00  -0.01   0.01    -0.06  -0.17   0.08
  24   1    -0.21  -0.07  -0.10    -0.01  -0.00  -0.01    -0.17  -0.05  -0.08
  25   1     0.04   0.24  -0.03    -0.00  -0.03   0.00    -0.00  -0.06   0.01
  26   1     0.00   0.00  -0.00     0.00  -0.00   0.01    -0.00  -0.00  -0.01
                     55                     56                     57
                        a                      a                      a 
 Frequencies --  1485.5787              1508.6317              1563.9832
 Red. masses --     2.8245                 3.3499                 2.1818
 Frc consts  --     0.0000                 0.0000                 0.0000
 IR Inten    --    49.0464               154.6226                24.3504
 Raman Activ --     0.0000                 0.0000                 0.0000
 Depolar     --     0.0000                 0.0000                 0.0000
 Atom AN      X      Y      Z        X      Y      Z        X      Y      Z
   1   6     0.01   0.22   0.08    -0.00   0.02  -0.00     0.01   0.03   0.01
   2   6    -0.08   0.01  -0.01    -0.02  -0.00  -0.00    -0.01   0.02   0.01
   3   6    -0.00   0.01   0.02    -0.01  -0.00  -0.01     0.07  -0.04  -0.05
   4   6     0.01  -0.02  -0.01    -0.02   0.02  -0.01    -0.01   0.01   0.00
   5   8     0.00   0.01   0.01    -0.00  -0.00  -0.00     0.00  -0.00   0.00
   6   8     0.00   0.00   0.00     0.00  -0.01   0.00     0.00   0.00   0.00
   7   7    -0.01   0.00  -0.02    -0.01   0.00  -0.01     0.15  -0.05   0.22
   8   6     0.08   0.03  -0.08     0.04   0.05  -0.14    -0.00   0.00  -0.00
   9   7    -0.09   0.00  -0.09     0.11  -0.01   0.08    -0.00   0.01  -0.00
  10   6     0.13   0.08   0.13    -0.15  -0.04  -0.19     0.01  -0.07   0.03
  11   7    -0.09  -0.12  -0.04     0.18   0.23   0.05     0.01   0.02   0.00
  12   7    -0.02  -0.02  -0.02     0.03  -0.02   0.05    -0.01   0.04  -0.02
  13   1    -0.15  -0.26  -0.42    -0.01  -0.02  -0.04    -0.02  -0.04  -0.06
  14   1     0.08  -0.52   0.10     0.02  -0.05   0.00    -0.00  -0.08   0.02
  15   1     0.16  -0.04  -0.07     0.05  -0.02  -0.02     0.01  -0.02  -0.00
  16   1     0.11   0.02   0.13     0.04   0.00   0.04     0.01   0.02   0.01
  17   1     0.00   0.00  -0.02    -0.01   0.01   0.00    -0.01   0.00   0.07
  18   1    -0.01   0.01  -0.00     0.01  -0.03   0.01     0.00  -0.00  -0.01
  19   1     0.05   0.02   0.03     0.03   0.01   0.02    -0.54  -0.21  -0.33
  20   1     0.01  -0.03   0.03     0.01  -0.02   0.02    -0.21   0.46  -0.43
  21   1    -0.20  -0.17   0.14    -0.28  -0.16   0.17    -0.01  -0.01   0.00
  22   1     0.04   0.04   0.24     0.09  -0.01   0.40     0.00  -0.00   0.01
  23   1     0.05   0.16  -0.07    -0.13  -0.41   0.17    -0.01  -0.03   0.01
  24   1     0.16   0.05   0.08    -0.44  -0.16  -0.23    -0.02  -0.00  -0.01
  25   1    -0.00   0.05  -0.01     0.01  -0.06   0.01    -0.00   0.01  -0.01
  26   1     0.00   0.00   0.01    -0.00   0.00  -0.00    -0.00   0.00  -0.00
                     58                     59                     60
                        a                      a                      a 
 Frequencies --  1649.8439              2757.8567              2945.4203
 Red. masses --    11.9647                 1.9626                 1.7436
 Frc consts  --     0.0000                 0.0000                 0.0000
 IR Inten    --   446.0743               794.9670                31.6117
 Raman Activ --     0.0000                 0.0000                 0.0000
 Depolar     --     0.0000                 0.0000                 0.0000
 Atom AN      X      Y      Z        X      Y      Z        X      Y      Z
   1   6    -0.00   0.01  -0.00    -0.00   0.00   0.00     0.00   0.00   0.00
   2   6     0.00   0.00   0.00    -0.00   0.00   0.00     0.01  -0.01   0.01
   3   6     0.00  -0.01  -0.01     0.00   0.00  -0.00    -0.20  -0.15  -0.03
   4   6    -0.02   0.06  -0.02     0.00  -0.04   0.02    -0.01  -0.01   0.00
   5   8    -0.00  -0.01  -0.00    -0.00   0.00  -0.01     0.00   0.00   0.00
   6   8    -0.01  -0.02  -0.00     0.20   0.03   0.13     0.00   0.00   0.00
   7   7     0.02  -0.01   0.02    -0.00   0.00   0.00    -0.00  -0.00  -0.01
   8   6    -0.01   0.02   0.01     0.00   0.00  -0.00     0.01   0.01  -0.00
   9   7     0.10  -0.08   0.12     0.02   0.00   0.02     0.00   0.00   0.00
  10   6    -0.19   0.66  -0.40    -0.03   0.03  -0.04     0.00  -0.00  -0.00
  11   7    -0.04  -0.14   0.02     0.00  -0.01   0.00     0.00   0.00   0.00
  12   7     0.11  -0.42   0.24     0.00  -0.02   0.01     0.00   0.00   0.00
  13   1    -0.01  -0.00  -0.00     0.00  -0.00   0.00     0.00  -0.01   0.01
  14   1     0.00  -0.01   0.00    -0.00  -0.00  -0.00    -0.00  -0.00  -0.01
  15   1     0.00  -0.00   0.00     0.00   0.00   0.00    -0.02  -0.01  -0.05
  16   1    -0.00  -0.00   0.00     0.00  -0.00  -0.00    -0.02   0.01   0.02
  17   1    -0.01   0.01   0.01    -0.00  -0.01  -0.00     0.77   0.57   0.12
  18   1     0.04  -0.08   0.04    -0.79  -0.00  -0.55    -0.01  -0.00  -0.00
  19   1    -0.05  -0.02  -0.03     0.00  -0.00  -0.01     0.00  -0.00  -0.00
  20   1    -0.02   0.05  -0.04    -0.00  -0.00  -0.00    -0.01  -0.01  -0.01
  21   1     0.01   0.01  -0.00    -0.00  -0.00   0.00     0.00   0.00  -0.00
  22   1     0.00  -0.00  -0.01    -0.01  -0.01   0.00    -0.04  -0.03   0.01
  23   1     0.03   0.15  -0.03    -0.00   0.01  -0.00    -0.00   0.00  -0.00
  24   1     0.05  -0.03  -0.00    -0.00  -0.00  -0.00     0.00  -0.00   0.00
  25   1     0.05  -0.09   0.06    -0.00  -0.03   0.02     0.00  -0.00  -0.00
  26   1    -0.01   0.00  -0.02    -0.00   0.00   0.01    -0.00   0.00   0.00
                     61                     62                     63
                        a                      a                      a 
 Frequencies --  2957.0234              2973.6191              2984.4288
 Red. masses --     1.8830                 1.7876                 1.7191
 Frc consts  --     0.0000                 0.0000                 0.0000
 IR Inten    --    50.0715                11.6402                28.5515
 Raman Activ --     0.0000                 0.0000                 0.0000
 Depolar     --     0.0000                 0.0000                 0.0000
 Atom AN      X      Y      Z        X      Y      Z        X      Y      Z
   1   6     0.00   0.01   0.02     0.09  -0.06   0.21     0.05  -0.04   0.13
   2   6     0.00   0.00   0.01    -0.01  -0.01  -0.04    -0.00  -0.02  -0.07
   3   6    -0.01  -0.01  -0.00     0.00   0.00  -0.00    -0.00  -0.00  -0.00
   4   6     0.00   0.00   0.00    -0.00   0.00  -0.00     0.00  -0.00   0.00
   5   8     0.00  -0.00   0.00    -0.00  -0.00   0.00     0.00   0.00  -0.00
   6   8     0.00  -0.00   0.00    -0.00  -0.00  -0.00     0.00   0.00   0.00
   7   7    -0.00  -0.00  -0.00    -0.00  -0.00   0.00    -0.00  -0.00   0.00
   8   6    -0.23  -0.15  -0.04     0.01   0.00  -0.11     0.03   0.02   0.19
   9   7    -0.01  -0.01  -0.00    -0.00   0.00  -0.01     0.00  -0.01   0.01
  10   6    -0.00  -0.00  -0.00     0.00   0.00   0.00    -0.00   0.00  -0.00
  11   7    -0.00   0.00  -0.00     0.00  -0.00   0.00    -0.00  -0.00  -0.00
  12   7     0.00   0.00   0.00     0.00  -0.00   0.00     0.00   0.00  -0.00
  13   1     0.01  -0.03   0.02    -0.09   0.35  -0.17    -0.06   0.23  -0.11
  14   1    -0.05  -0.03  -0.12    -0.24  -0.15  -0.61    -0.14  -0.09  -0.35
  15   1    -0.01  -0.00  -0.02     0.07   0.02   0.15     0.10   0.02   0.21
  16   1     0.00  -0.00  -0.00    -0.03   0.02   0.02    -0.08   0.05   0.06
  17   1     0.03   0.03   0.01    -0.01  -0.01  -0.00     0.02   0.01   0.00
  18   1    -0.01  -0.00  -0.01     0.00   0.00   0.00    -0.00   0.00  -0.00
  19   1     0.00   0.00  -0.00    -0.00   0.00  -0.00     0.00  -0.00  -0.00
  20   1     0.00   0.00  -0.00     0.00   0.00  -0.00     0.00   0.00  -0.00
  21   1     0.11   0.07   0.31     0.19   0.13   0.41    -0.32  -0.20  -0.66
  22   1     0.73   0.48  -0.14    -0.22  -0.14   0.02     0.22   0.14  -0.01
  23   1     0.00   0.00   0.00    -0.00  -0.00  -0.00     0.00   0.00   0.00
  24   1     0.00   0.00   0.00    -0.00  -0.00  -0.00     0.00   0.00  -0.00
  25   1    -0.00  -0.00   0.00    -0.00   0.00  -0.00    -0.00   0.00  -0.00
  26   1     0.00   0.00   0.00    -0.00   0.00   0.00     0.00  -0.00  -0.00
                     64                     65                     66
                        a                      a                      a 
 Frequencies --  2989.7869              2999.2800              3003.8417
 Red. masses --     1.5691                 1.8733                 1.5843
 Frc consts  --     0.0000                 0.0000                 0.0000
 IR Inten    --    33.8699                51.5604                40.1863
 Raman Activ --     0.0000                 0.0000                 0.0000
 Depolar     --     0.0000                 0.0000                 0.0000
 Atom AN      X      Y      Z        X      Y      Z        X      Y      Z
   1   6    -0.01   0.20  -0.00     0.02   0.06   0.06    -0.03   0.03  -0.06
   2   6     0.05  -0.03  -0.08    -0.11   0.10   0.22    -0.16   0.02  -0.14
   3   6     0.01   0.00  -0.00    -0.00   0.00   0.01    -0.02  -0.01  -0.01
   4   6    -0.00   0.00   0.00     0.00   0.00   0.00    -0.00  -0.00  -0.00
   5   8     0.00  -0.00   0.00     0.00   0.00  -0.00     0.00  -0.00   0.00
   6   8    -0.00  -0.00  -0.00    -0.00   0.00  -0.00    -0.00   0.00  -0.00
   7   7    -0.00  -0.00   0.00    -0.00  -0.00  -0.00     0.00   0.00   0.00
   8   6     0.02   0.02   0.00     0.02   0.01   0.03    -0.01  -0.01  -0.02
   9   7    -0.00   0.00   0.00     0.00  -0.00   0.00    -0.00   0.00  -0.00
  10   6     0.00   0.00   0.00     0.00   0.00   0.00     0.00  -0.00   0.00
  11   7     0.00  -0.00   0.00     0.00  -0.00  -0.00    -0.00   0.00   0.00
  12   7    -0.00  -0.00   0.00    -0.00   0.00  -0.00    -0.00   0.00   0.00
  13   1     0.19  -0.67   0.39     0.05  -0.16   0.10     0.03  -0.13   0.07
  14   1    -0.16  -0.06  -0.39    -0.12  -0.06  -0.30     0.05   0.03   0.13
  15   1     0.04   0.00   0.07    -0.15  -0.03  -0.28     0.33   0.10   0.79
  16   1    -0.22   0.14   0.20     0.54  -0.34  -0.49     0.24  -0.17  -0.27
  17   1    -0.02  -0.02  -0.00    -0.00  -0.00  -0.00     0.05   0.04   0.01
  18   1     0.00  -0.00   0.00     0.01   0.00   0.00     0.00  -0.00   0.00
  19   1    -0.00  -0.00   0.00    -0.00   0.00  -0.00    -0.00   0.00  -0.00
  20   1     0.00   0.00   0.00     0.00   0.00   0.00    -0.00  -0.00   0.00
  21   1    -0.01  -0.00  -0.02    -0.05  -0.03  -0.12     0.03   0.02   0.07
  22   1    -0.07  -0.04   0.01    -0.01  -0.01   0.01    -0.00  -0.00  -0.00
  23   1    -0.00  -0.00  -0.00    -0.00  -0.00   0.00     0.00   0.00  -0.00
  24   1    -0.00  -0.00   0.00    -0.00   0.00   0.00     0.00  -0.00   0.00
  25   1     0.00  -0.00  -0.00     0.00   0.00   0.00     0.00  -0.00   0.00
  26   1    -0.00   0.00  -0.00    -0.00  -0.00  -0.00    -0.00   0.00   0.00
                     67                     68                     69
                        a                      a                      a 
 Frequencies --  3384.8524              3414.3133              3421.7703
 Red. masses --     1.5287                 2.0517                 1.8697
 Frc consts  --     0.0000                 0.0000                 0.0000
 IR Inten    --     9.6269                 2.0069                12.4796
 Raman Activ --     0.0000                 0.0000                 0.0000
 Depolar     --     0.0000                 0.0000                 0.0000
 Atom AN      X      Y      Z        X      Y      Z        X      Y      Z
   1   6    -0.00  -0.00  -0.00    -0.00  -0.00  -0.00    -0.00   0.00  -0.00
   2   6    -0.00  -0.00  -0.00     0.00   0.00  -0.00    -0.00   0.00   0.00
   3   6    -0.01   0.00  -0.00    -0.00  -0.01   0.00    -0.00  -0.00   0.00
   4   6    -0.00   0.00   0.00    -0.00  -0.00   0.00    -0.00   0.00  -0.00
   5   8    -0.00   0.00   0.00    -0.00   0.00   0.00     0.00  -0.00  -0.00
   6   8     0.00  -0.00   0.00    -0.00   0.00  -0.00     0.00   0.00   0.00
   7   7    -0.18   0.01  -0.09    -0.08  -0.27   0.05    -0.00  -0.00  -0.00
   8   6     0.00   0.00  -0.00     0.00  -0.00  -0.00     0.00   0.00   0.00
   9   7     0.00   0.00   0.00     0.00   0.00   0.00    -0.00  -0.00  -0.00
  10   6     0.00   0.00  -0.00     0.00  -0.00   0.00     0.01   0.02   0.00
  11   7    -0.00  -0.00  -0.00    -0.00   0.00  -0.00    -0.00   0.00  -0.01
  12   7    -0.00   0.00  -0.00    -0.00   0.00  -0.00     0.17  -0.01   0.19
  13   1     0.00  -0.00   0.00     0.00   0.00  -0.00     0.00  -0.00   0.00
  14   1     0.00  -0.00   0.00     0.00   0.00   0.00     0.00   0.00   0.00
  15   1     0.00   0.00   0.00     0.00  -0.00   0.00    -0.00   0.00  -0.00
  16   1     0.00  -0.00  -0.00    -0.00   0.00   0.00     0.00  -0.00  -0.00
  17   1     0.01   0.01  -0.00     0.00   0.00  -0.00    -0.00  -0.00  -0.00
  18   1    -0.00  -0.00  -0.00     0.00   0.00  -0.00    -0.01  -0.01  -0.00
  19   1     0.04  -0.50   0.19    -0.12   0.75  -0.29     0.00  -0.00   0.00
  20   1     0.66   0.47   0.14     0.43   0.26   0.10     0.01   0.00   0.00
  21   1     0.00   0.00   0.00    -0.00   0.00  -0.00     0.00  -0.00  -0.00
  22   1    -0.00  -0.00   0.00    -0.00   0.00   0.00    -0.00  -0.00  -0.00
  23   1     0.00  -0.00   0.00     0.00  -0.00   0.00     0.01  -0.00   0.01
  24   1    -0.00   0.00  -0.00    -0.00   0.00  -0.00    -0.00  -0.01   0.01
  25   1     0.01   0.00   0.01     0.00   0.00   0.00    -0.66  -0.02  -0.71
  26   1     0.00  -0.00   0.00     0.00  -0.00  -0.00    -0.00   0.00   0.00
                     70                     71                     72
                        a                      a                      a 
 Frequencies --  3467.4160              3514.7701              3523.6610
 Red. masses --     1.4912                 1.8663                 2.1159
 Frc consts  --     0.0000                 0.0000                 0.0000
 IR Inten    --     3.0053                35.5061                 4.2864
 Raman Activ --     0.0000                 0.0000                 0.0000
 Depolar     --     0.0000                 0.0000                 0.0000
 Atom AN      X      Y      Z        X      Y      Z        X      Y      Z
   1   6    -0.00   0.00   0.00    -0.00  -0.00  -0.00     0.00   0.00   0.00
   2   6    -0.00   0.00  -0.00    -0.00  -0.00  -0.00     0.00  -0.00   0.00
   3   6     0.00   0.00   0.00     0.00  -0.00   0.00     0.00   0.00   0.00
   4   6     0.00  -0.00  -0.00     0.00   0.00   0.01     0.00   0.00  -0.00
   5   8    -0.00   0.00   0.00    -0.10   0.20   0.08     0.00  -0.00  -0.00
   6   8     0.00   0.00   0.00     0.00  -0.00   0.00     0.00  -0.00   0.00
   7   7     0.00   0.00   0.00     0.00   0.00   0.00     0.00   0.00  -0.00
   8   6     0.00   0.00  -0.00    -0.00   0.00  -0.00    -0.00  -0.00   0.00
   9   7     0.00  -0.00   0.00    -0.00  -0.00  -0.00     0.00   0.00   0.00
  10   6    -0.01  -0.00   0.00     0.00  -0.00   0.00    -0.00   0.01  -0.01
  11   7    -0.17  -0.09  -0.03    -0.00   0.00  -0.00    -0.12   0.18  -0.20
  12   7     0.00   0.00  -0.00     0.00   0.00   0.00    -0.00  -0.00  -0.00
  13   1     0.00  -0.00   0.00     0.00  -0.00   0.00    -0.00   0.00  -0.00
  14   1    -0.00   0.00  -0.00    -0.00  -0.00  -0.00     0.00  -0.00  -0.00
  15   1     0.00   0.00   0.00     0.00   0.00   0.00    -0.00  -0.00  -0.00
  16   1    -0.00   0.00   0.00     0.00  -0.00  -0.00     0.00  -0.00  -0.00
  17   1     0.00   0.00   0.00     0.00   0.00   0.00    -0.00  -0.00   0.00
  18   1    -0.00  -0.00  -0.00    -0.00  -0.00  -0.00    -0.00  -0.00  -0.00
  19   1     0.00  -0.00   0.00     0.00  -0.00   0.00     0.00  -0.00   0.00
  20   1    -0.01  -0.00  -0.00    -0.00  -0.00  -0.00    -0.00   0.00  -0.00
  21   1     0.00   0.00   0.00     0.00   0.00   0.00    -0.00  -0.00  -0.00
  22   1    -0.00  -0.00   0.00    -0.00  -0.00   0.00    -0.00  -0.00  -0.00
  23   1     0.68  -0.11   0.44     0.00  -0.00   0.00     0.45  -0.05   0.27
  24   1    -0.03   0.43  -0.34    -0.00  -0.00   0.00     0.00  -0.63   0.49
  25   1    -0.00  -0.00   0.00    -0.00  -0.00  -0.00     0.01  -0.00   0.02
  26   1     0.00  -0.00  -0.00     0.39  -0.82  -0.34    -0.00   0.00   0.00
