26
 energy: -39.829637544728 gnorm: 0.000077418992 xtb: 6.6.0 (8843059)
C           -0.68443600000000        2.07129000000000       -0.35038700000000
C           -1.92994300000000        1.19363500000000       -0.23367600000000
C           -1.60317200000000       -0.20041900000000        0.30988500000000
C           -0.45018900000000       -0.86403600000000       -0.51094900000000
O           -0.87364500000000       -1.01143000000000       -1.83110500000000
O           -0.14177100000000       -2.10696000000000       -0.01907300000000
N           -1.32017600000000       -0.14889100000000        1.73072500000000
C            0.36630300000000        1.31048200000000       -1.15731000000000
N            0.71443400000000        0.06252200000000       -0.49870500000000
C            1.62752600000000        0.01331200000000        0.51696800000000
N            2.26190400000000        1.18460600000000        0.88438900000000
N            1.87009300000000       -1.10275600000000        1.10666000000000
H           -0.93381100000000        3.00706400000000       -0.85261400000000
H           -0.29496700000000        2.30867900000000        0.64177000000000
H           -2.37489200000000        1.07385000000000       -1.22197800000000
H           -2.66045500000000        1.65569700000000        0.43062900000000
H           -2.47578200000000       -0.84916200000000        0.17878100000000
H            0.68535700000000       -2.01851300000000        0.53885500000000
H           -1.16079200000000       -1.09022500000000        2.07457500000000
H           -0.47345500000000        0.38333800000000        1.90580100000000
H           -0.05880100000000        1.03277400000000       -2.12501200000000
H            1.26247600000000        1.90432900000000       -1.34754500000000
H            3.11849100000000        1.06331500000000        1.40136900000000
H            2.26183900000000        1.97325500000000        0.26142000000000
H            2.56398700000000       -1.04883900000000        1.84092400000000
H           -0.47994700000000       -1.82960700000000       -2.16085600000000
