 Entering Gaussian System
 *********************************************
 Gaussian 98:
 frequency output generated by the xtb code
 *********************************************
                         Standard orientation:
 --------------------------------------------------------------------
  Center     Atomic     Atomic              Coordinates (Angstroms)
  Number     Number      Type              X           Y           Z
 --------------------------------------------------------------------
    1          6             0       -1.445752   -0.518649   -1.180294
    2          6             0       -0.671695   -0.478134    0.134491
    3          6             0        0.738113    0.047508   -0.096051
    4          8             0        1.326436    0.016795   -1.141819
    5          8             0        1.303695    0.503258    1.029095
    6          7             0       -1.369820    0.353924    1.098311
    7          1             0       -1.667270    0.496246   -1.497415
    8          1             0       -0.849539   -1.006376   -1.945528
    9          1             0       -2.379575   -1.059127   -1.050882
   10          1             0       -0.517712   -1.519358    0.490893
   11          1             0        2.202280    0.819621    0.844353
   12          1             0       -2.251841   -0.073207    1.356637
   13          1             0       -0.813436    0.480803    1.935490
 --------------------------------------------------------------------
     1 basis functions        1 primitive gaussians
     1 alpha electrons        1 beta electrons
 
 Harmonic frequencies (cm**-1), IR intensities (km*mol⁻¹),
 Raman scattering activities (A**4/amu), Raman depolarization ratios,
 reduced masses (AMU), force constants (mDyne/A) and normal coordinates:
                      1                      2                      3
                        a                      a                      a 
 Frequencies --    40.7106               166.0836               231.3244
 Red. masses --    13.1112                 1.5440                 2.1048
 Frc consts  --     0.0000                 0.0000                 0.0000
 IR Inten    --     1.6791                 0.4405                39.8498
 Raman Activ --     0.0000                 0.0000                 0.0000
 Depolar     --     0.0000                 0.0000                 0.0000
 Atom AN      X      Y      Z        X      Y      Z        X      Y      Z
   1   6     0.06  -0.36   0.05    -0.07  -0.05   0.03     0.07   0.00   0.05
   2   6    -0.00   0.02   0.07    -0.01   0.06  -0.00     0.02  -0.11   0.07
   3   6    -0.01   0.04   0.02     0.01   0.02  -0.01     0.01  -0.05   0.03
   4   8    -0.19   0.50  -0.09     0.05  -0.05   0.01    -0.11   0.04  -0.04
   5   8     0.18  -0.48   0.14     0.03  -0.08   0.01    -0.02   0.06  -0.05
   6   7    -0.05   0.32  -0.20     0.00   0.12  -0.05     0.18   0.06   0.02
   7   1     0.04  -0.13  -0.08    -0.51  -0.03   0.29     0.07   0.01   0.01
   8   1     0.02  -0.18   0.07     0.20   0.47  -0.13     0.01  -0.02   0.02
   9   1     0.01  -0.08   0.05     0.24  -0.50  -0.12    -0.01   0.04  -0.00
  10   1     0.00   0.04   0.11     0.01   0.02   0.02    -0.03  -0.04   0.02
  11   1     0.04  -0.11   0.04     0.02  -0.04   0.01    -0.03   0.09  -0.03
  12   1    -0.02   0.11  -0.04    -0.03   0.07  -0.06    -0.28   0.38  -0.50
  13   1    -0.03   0.13  -0.05    -0.03  -0.02   0.02    -0.23  -0.54   0.27
                      4                      5                      6
                        a                      a                      a 
 Frequencies --   240.1851               302.6611               386.3796
 Red. masses --    11.7358                 9.9633                 9.3486
 Frc consts  --     0.0000                 0.0000                 0.0000
 IR Inten    --     4.1247                 6.7423                 7.6176
 Raman Activ --     0.0000                 0.0000                 0.0000
 Depolar     --     0.0000                 0.0000                 0.0000
 Atom AN      X      Y      Z        X      Y      Z        X      Y      Z
   1   6     0.43   0.12  -0.10     0.28   0.05  -0.14     0.13  -0.20  -0.24
   2   6    -0.04   0.04   0.19    -0.05  -0.27   0.07    -0.14   0.39  -0.09
   3   6    -0.05   0.01   0.12    -0.12  -0.24   0.05    -0.12   0.25  -0.13
   4   8    -0.43  -0.14  -0.07    -0.29   0.09  -0.03     0.04  -0.13  -0.04
   5   8     0.39   0.05  -0.12    -0.35   0.03   0.02    -0.16  -0.11   0.00
   6   7    -0.39  -0.09   0.07     0.44   0.17   0.04     0.13   0.03   0.48
   7   1     0.14   0.04  -0.01     0.11   0.04   0.03     0.00  -0.13  -0.27
   8   1     0.24   0.09   0.02     0.18   0.10  -0.02     0.17  -0.14   0.08
   9   1     0.13   0.00  -0.17     0.08  -0.01  -0.19     0.07  -0.12  -0.10
  10   1    -0.02   0.01   0.05    -0.11  -0.08   0.03     0.03   0.11  -0.05
  11   1     0.09  -0.02  -0.12    -0.14   0.15   0.00     0.03  -0.19   0.08
  12   1    -0.07  -0.10   0.01     0.13   0.12   0.18     0.02   0.02   0.09
  13   1    -0.13   0.05   0.03     0.23   0.12  -0.08     0.09  -0.21   0.12
                      7                      8                      9
                        a                      a                      a 
 Frequencies --   469.4629               545.0601               616.6714
 Red. masses --    11.8419                11.8710                 4.7479
 Frc consts  --     0.0000                 0.0000                 0.0000
 IR Inten    --    13.3257                23.5464                80.2850
 Raman Activ --     0.0000                 0.0000                 0.0000
 Depolar     --     0.0000                 0.0000                 0.0000
 Atom AN      X      Y      Z        X      Y      Z        X      Y      Z
   1   6    -0.27  -0.12  -0.32    -0.04  -0.03  -0.06     0.05   0.01   0.08
   2   6    -0.18  -0.06  -0.23    -0.30  -0.09   0.13    -0.08  -0.23   0.09
   3   6    -0.08   0.00   0.31    -0.03  -0.30  -0.07    -0.23   0.11  -0.04
   4   8    -0.19   0.03   0.32     0.47   0.28   0.15     0.11   0.11   0.17
   5   8     0.46   0.21   0.10     0.11  -0.05  -0.34    -0.06   0.16  -0.23
   6   7     0.22  -0.04  -0.06    -0.21   0.11   0.26     0.07  -0.04  -0.08
   7   1    -0.11  -0.06  -0.14     0.03  -0.01  -0.04     0.10   0.05   0.11
   8   1    -0.08  -0.06  -0.08     0.08   0.00   0.04     0.03   0.04   0.01
   9   1    -0.06  -0.06  -0.04    -0.02  -0.02  -0.14    -0.02   0.05  -0.07
  10   1    -0.10  -0.05  -0.12    -0.18  -0.02   0.07     0.03  -0.05   0.04
  11   1     0.09   0.01  -0.17    -0.08   0.19  -0.26     0.28  -0.76  -0.01
  12   1     0.03   0.09   0.05    -0.05   0.03   0.10    -0.03   0.11  -0.01
  13   1     0.15  -0.09  -0.06    -0.02  -0.01   0.05     0.02   0.04  -0.03
                     10                     11                     12
                        a                      a                      a 
 Frequencies --   710.0902               808.8213               909.8309
 Red. masses --    10.2330                 9.5440                 4.1946
 Frc consts  --     0.0000                 0.0000                 0.0000
 IR Inten    --   140.1728                34.5861               111.5300
 Raman Activ --     0.0000                 0.0000                 0.0000
 Depolar     --     0.0000                 0.0000                 0.0000
 Atom AN      X      Y      Z        X      Y      Z        X      Y      Z
   1   6    -0.08  -0.01  -0.11    -0.17  -0.10  -0.15     0.07  -0.15  -0.08
   2   6    -0.01   0.08  -0.02    -0.23  -0.37   0.14     0.11  -0.11  -0.12
   3   6     0.43  -0.52   0.09     0.17   0.36  -0.16    -0.04   0.03   0.01
   4   8    -0.09   0.15  -0.27     0.11  -0.11  -0.29    -0.03  -0.01   0.05
   5   8    -0.07   0.31   0.12     0.17   0.06   0.27    -0.00   0.00  -0.01
   6   7    -0.11   0.07   0.14    -0.09   0.04   0.11    -0.15   0.39   0.03
   7   1    -0.08  -0.04  -0.10     0.12   0.06   0.10     0.10   0.07   0.27
   8   1    -0.02  -0.03  -0.01     0.01   0.06  -0.05    -0.18   0.08  -0.25
   9   1     0.01  -0.05   0.02    -0.13   0.06  -0.28    -0.06   0.10   0.02
  10   1    -0.18  -0.00  -0.01    -0.01  -0.06   0.10     0.01   0.08   0.23
  11   1     0.16  -0.31   0.26     0.05   0.10   0.29     0.01  -0.04  -0.03
  12   1     0.00  -0.07   0.01    -0.09   0.20   0.11     0.20  -0.39   0.12
  13   1    -0.04  -0.03   0.05     0.03   0.04  -0.02     0.11  -0.51   0.04
                     13                     14                     15
                        a                      a                      a 
 Frequencies --   967.3823              1019.3602              1067.1856
 Red. masses --     6.3638                 4.2327                 5.7625
 Frc consts  --     0.0000                 0.0000                 0.0000
 IR Inten    --    27.3594                 1.8937                24.6923
 Raman Activ --     0.0000                 0.0000                 0.0000
 Depolar     --     0.0000                 0.0000                 0.0000
 Atom AN      X      Y      Z        X      Y      Z        X      Y      Z
   1   6    -0.02   0.10   0.43    -0.38  -0.09  -0.09     0.07  -0.24   0.14
   2   6    -0.34   0.05  -0.08     0.18   0.13   0.15    -0.17   0.36  -0.23
   3   6     0.02   0.01  -0.04    -0.00  -0.08   0.04     0.03  -0.24   0.01
   4   8     0.04   0.00  -0.07    -0.05   0.01   0.05    -0.01   0.04  -0.04
   5   8     0.08   0.06   0.09    -0.03  -0.00   0.00     0.01   0.05   0.10
   6   7     0.04  -0.03  -0.33     0.19   0.02  -0.04    -0.04  -0.21  -0.00
   7   1     0.06  -0.03  -0.09     0.17   0.04  -0.02     0.23   0.09   0.36
   8   1     0.30  -0.02   0.37     0.20   0.08   0.14    -0.02   0.12  -0.10
   9   1     0.01  -0.06  -0.13    -0.19   0.03  -0.50    -0.11   0.12  -0.13
  10   1    -0.16  -0.01  -0.04     0.20   0.09   0.15     0.32   0.17   0.08
  11   1     0.02   0.02   0.07    -0.02  -0.02  -0.08    -0.02   0.01  -0.11
  12   1     0.13  -0.19   0.06     0.13  -0.32  -0.24    -0.14   0.31   0.08
  13   1     0.18  -0.37  -0.13    -0.20   0.13   0.14     0.17   0.00  -0.14
                     16                     17                     18
                        a                      a                      a 
 Frequencies --  1126.2170              1166.9429              1188.0254
 Red. masses --     9.9419                 7.9035                 4.4554
 Frc consts  --     0.0000                 0.0000                 0.0000
 IR Inten    --   309.5720                35.2304                 8.2943
 Raman Activ --     0.0000                 0.0000                 0.0000
 Depolar     --     0.0000                 0.0000                 0.0000
 Atom AN      X      Y      Z        X      Y      Z        X      Y      Z
   1   6     0.08   0.03   0.03     0.10  -0.01  -0.20     0.12  -0.24   0.18
   2   6     0.01  -0.07  -0.06    -0.26   0.26   0.42    -0.12   0.07  -0.34
   3   6    -0.29  -0.11  -0.28    -0.17  -0.06  -0.15    -0.06   0.08  -0.01
   4   8     0.12  -0.02  -0.25     0.07   0.02  -0.02    -0.01  -0.01   0.06
   5   8     0.08   0.15   0.58     0.09   0.04   0.04     0.07   0.00  -0.07
   6   7     0.02   0.06   0.08     0.23  -0.27  -0.19     0.13   0.02   0.15
   7   1    -0.03  -0.01  -0.01    -0.09   0.01   0.05     0.16   0.04   0.28
   8   1    -0.01  -0.02   0.00    -0.17  -0.00  -0.19    -0.01   0.07  -0.07
   9   1     0.04  -0.01   0.07     0.02   0.04   0.15    -0.05   0.07  -0.03
  10   1    -0.07  -0.03  -0.03    -0.23   0.13   0.40    -0.49  -0.09  -0.23
  11   1    -0.06  -0.14  -0.52     0.03   0.06   0.19     0.04   0.06   0.21
  12   1     0.02  -0.09  -0.09     0.06  -0.13  -0.15     0.05  -0.18  -0.22
  13   1    -0.10   0.09   0.08     0.02  -0.01  -0.04    -0.21   0.28   0.14
                     19                     20                     21
                        a                      a                      a 
 Frequencies --  1225.2187              1288.9419              1319.4996
 Red. masses --     6.8750                 5.0149                 7.2878
 Frc consts  --     0.0000                 0.0000                 0.0000
 IR Inten    --    98.1235                22.5149                14.6054
 Raman Activ --     0.0000                 0.0000                 0.0000
 Depolar     --     0.0000                 0.0000                 0.0000
 Atom AN      X      Y      Z        X      Y      Z        X      Y      Z
   1   6    -0.02  -0.07  -0.01     0.06  -0.15  -0.07    -0.14  -0.09   0.02
   2   6    -0.00   0.09   0.08    -0.17   0.16   0.48     0.58   0.18   0.17
   3   6     0.44   0.32   0.27     0.08  -0.00   0.03    -0.25  -0.07  -0.17
   4   8    -0.01  -0.04  -0.11     0.03   0.01  -0.06     0.01   0.01   0.05
   5   8    -0.24  -0.11  -0.03    -0.04  -0.01   0.01     0.06   0.03   0.05
   6   7     0.03  -0.14  -0.06     0.04   0.10  -0.14    -0.16  -0.07  -0.04
   7   1     0.02   0.01   0.05    -0.00   0.00   0.11     0.08  -0.01  -0.04
   8   1    -0.02   0.03  -0.04    -0.10   0.03  -0.14     0.02   0.08  -0.02
   9   1    -0.03   0.02  -0.03    -0.06   0.08  -0.03    -0.08   0.01  -0.20
  10   1    -0.42   0.02   0.15     0.16  -0.23  -0.69    -0.44  -0.09  -0.12
  11   1    -0.10  -0.14  -0.51    -0.02  -0.02  -0.08     0.02   0.01   0.09
  12   1    -0.02   0.05   0.03     0.07  -0.10   0.02    -0.09   0.21   0.14
  13   1     0.05  -0.01  -0.05    -0.01  -0.11   0.01     0.19  -0.15  -0.14
                     22                     23                     24
                        a                      a                      a 
 Frequencies --  1398.3391              1474.3709              1486.4411
 Red. masses --     3.2409                 1.5446                 1.5930
 Frc consts  --     0.0000                 0.0000                 0.0000
 IR Inten    --    10.0591                 3.5231                 3.6751
 Raman Activ --     0.0000                 0.0000                 0.0000
 Depolar     --     0.0000                 0.0000                 0.0000
 Atom AN      X      Y      Z        X      Y      Z        X      Y      Z
   1   6    -0.21  -0.03  -0.39    -0.03  -0.21   0.03     0.20  -0.04  -0.07
   2   6     0.05   0.02   0.05    -0.02  -0.04  -0.01     0.06  -0.01  -0.04
   3   6    -0.03  -0.00  -0.00    -0.01   0.00   0.01    -0.00  -0.01  -0.01
   4   8     0.01   0.00  -0.01     0.01  -0.00  -0.01    -0.01   0.00   0.02
   5   8     0.00   0.00   0.01     0.00   0.00   0.00     0.00   0.00   0.00
   6   7    -0.01  -0.00  -0.02     0.01   0.00  -0.02    -0.01  -0.00   0.00
   7   1     0.18   0.19   0.44    -0.02  -0.13  -0.35    -0.66  -0.07   0.24
   8   1     0.41  -0.10   0.35     0.34   0.59  -0.11     0.13  -0.23   0.22
   9   1     0.07  -0.04   0.47    -0.20   0.40   0.35    -0.28   0.47  -0.18
  10   1    -0.04  -0.02  -0.04     0.03   0.00   0.03    -0.01   0.01   0.02
  11   1     0.00   0.00   0.00     0.00  -0.00   0.00     0.00  -0.00   0.00
  12   1    -0.00   0.02   0.05     0.01   0.01   0.04    -0.01   0.02   0.02
  13   1    -0.01  -0.03   0.01    -0.05  -0.00   0.03    -0.01  -0.01   0.01
                     25                     26                     27
                        a                      a                      a 
 Frequencies --  1542.9984              1796.7138              2729.9279
 Red. masses --     2.1262                13.3131                 1.6940
 Frc consts  --     0.0000                 0.0000                 0.0000
 IR Inten    --    37.1961               436.9380                84.4262
 Raman Activ --     0.0000                 0.0000                 0.0000
 Depolar     --     0.0000                 0.0000                 0.0000
 Atom AN      X      Y      Z        X      Y      Z        X      Y      Z
   1   6     0.01   0.01   0.02     0.00  -0.00  -0.01     0.00  -0.00   0.00
   2   6     0.00   0.07  -0.05    -0.05  -0.01   0.02     0.02  -0.23   0.09
   3   6    -0.03  -0.02  -0.01     0.42  -0.00  -0.67    -0.00  -0.01   0.01
   4   8     0.00   0.00  -0.00    -0.30   0.01   0.52     0.00   0.00  -0.00
   5   8     0.01   0.01   0.01    -0.01   0.01   0.07     0.00   0.00  -0.00
   6   7     0.13  -0.07  -0.24    -0.01  -0.00   0.00     0.01  -0.02  -0.01
   7   1     0.02   0.00   0.01     0.01   0.00  -0.00     0.01  -0.02   0.01
   8   1    -0.05  -0.03  -0.02     0.01   0.01  -0.00     0.00  -0.00  -0.00
   9   1     0.02  -0.04  -0.05     0.01  -0.00   0.03    -0.01  -0.00   0.00
  10   1    -0.04   0.03   0.04    -0.02  -0.00  -0.01    -0.11   0.91  -0.32
  11   1     0.00   0.00   0.01    -0.01  -0.03  -0.10    -0.00  -0.00   0.00
  12   1     0.11   0.17   0.63    -0.00   0.00   0.00    -0.01   0.01  -0.01
  13   1    -0.55  -0.09   0.38    -0.01   0.00   0.01     0.00   0.00  -0.01
                     28                     29                     30
                        a                      a                      a 
 Frequencies --  3043.7369              3060.8082              3060.8948
 Red. masses --     1.7333                 1.8767                 1.5557
 Frc consts  --     0.0000                 0.0000                 0.0000
 IR Inten    --    27.4048                15.7331                 9.7303
 Raman Activ --     0.0000                 0.0000                 0.0000
 Depolar     --     0.0000                 0.0000                 0.0000
 Atom AN      X      Y      Z        X      Y      Z        X      Y      Z
   1   6    -0.21  -0.14   0.03     0.11  -0.26  -0.01    -0.11   0.01   0.19
   2   6    -0.01  -0.00   0.00     0.00  -0.01   0.00    -0.00   0.00   0.01
   3   6     0.00   0.00   0.00    -0.00  -0.00   0.00    -0.00   0.00   0.00
   4   8     0.00   0.00  -0.00     0.00   0.00  -0.00     0.00  -0.00  -0.00
   5   8     0.00  -0.00  -0.00    -0.00   0.00   0.00    -0.00  -0.00  -0.00
   6   7     0.00   0.00   0.00    -0.00   0.00  -0.00     0.00  -0.00  -0.00
   7   1    -0.04   0.03  -0.01    -0.17   0.83  -0.26    -0.09   0.37  -0.09
   8   1    -0.04  -0.01   0.03    -0.20   0.14   0.27     0.50  -0.41  -0.62
   9   1     0.83   0.48  -0.13    -0.03  -0.06   0.01    -0.01   0.00   0.02
  10   1     0.00   0.01  -0.00    -0.00   0.02  -0.00     0.00   0.00  -0.00
  11   1    -0.00  -0.00   0.00     0.00  -0.00  -0.00     0.00   0.00  -0.00
  12   1    -0.00  -0.00  -0.00     0.00   0.00   0.00    -0.00  -0.00  -0.00
  13   1    -0.00  -0.00  -0.00     0.00   0.00   0.00     0.00   0.00   0.00
                     31                     32                     33
                        a                      a                      a 
 Frequencies --  3403.0551              3437.4141              3444.6510
 Red. masses --     1.5147                 2.0698                 1.8529
 Frc consts  --     0.0000                 0.0000                 0.0000
 IR Inten    --     7.3549                 0.4979                32.7315
 Raman Activ --     0.0000                 0.0000                 0.0000
 Depolar     --     0.0000                 0.0000                 0.0000
 Atom AN      X      Y      Z        X      Y      Z        X      Y      Z
   1   6    -0.00   0.00  -0.00    -0.00  -0.00  -0.00    -0.00  -0.00  -0.00
   2   6    -0.00  -0.01   0.01    -0.01  -0.00  -0.00     0.00   0.00  -0.00
   3   6     0.00   0.00   0.00    -0.00  -0.00  -0.00    -0.01  -0.01  -0.01
   4   8    -0.00  -0.00   0.00    -0.00   0.00   0.00    -0.00  -0.00   0.00
   5   8     0.01   0.00  -0.00    -0.03  -0.01   0.01    -0.22  -0.08   0.05
   6   7    -0.10  -0.05   0.16    -0.24  -0.09  -0.13     0.03   0.01   0.02
   7   1    -0.00   0.00  -0.00     0.00  -0.00   0.00     0.00  -0.00   0.00
   8   1     0.00  -0.00  -0.00     0.00  -0.00  -0.00    -0.00   0.00   0.00
   9   1     0.00   0.00   0.00     0.00   0.00   0.00    -0.00   0.00  -0.00
  10   1     0.00  -0.00  -0.00    -0.00   0.00  -0.00    -0.00   0.00  -0.00
  11   1    -0.02  -0.01   0.00     0.14   0.05  -0.03     0.89   0.32  -0.17
  12   1     0.71   0.31  -0.17     0.48   0.23  -0.15    -0.06  -0.03   0.02
  13   1    -0.34  -0.11  -0.46     0.42   0.11   0.63    -0.07  -0.02  -0.11
