13
 energy: -21.039916819290 gnorm: 0.000153159484 xtb: 6.6.0 (8843059)
C           -1.44574500000000       -0.51865400000000       -1.18030000000000
C           -0.67169300000000       -0.47813800000000        0.13448800000000
C            0.73811300000000        0.04751200000000       -0.09604800000000
O            1.32644000000000        0.01680400000000       -1.14181400000000
O            1.30368900000000        0.50326300000000        1.02910000000000
N           -1.36982600000000        0.35391500000000        1.09830700000000
H           -1.66726700000000        0.49624000000000       -1.49742000000000
H           -0.84952700000000       -1.00637700000000       -1.94553300000000
H           -2.37956600000000       -1.05913800000000       -1.05089200000000
H           -0.51770600000000       -1.51936100000000        0.49088800000000
H            2.20227300000000        0.81963100000000        0.84436200000000
H           -2.25184500000000       -0.07322100000000        1.35662900000000
H           -0.81344500000000        0.48079500000000        1.93548800000000
