      -----------------------------------------------------------      
     |                   =====================                   |     
     |                           x T B                           |     
     |                   =====================                   |     
     |                         S. Grimme                         |     
     |          Mulliken Center for Theoretical Chemistry        |     
     |                    University of Bonn                     |     
      -----------------------------------------------------------      

   * xtb version 6.6.0 (8843059) compiled by 'stahn@majestix' on 2023-02-09

   xtb is free software: you can redistribute it and/or modify it under
   the terms of the GNU Lesser General Public License as published by
   the Free Software Foundation, either version 3 of the License, or
   (at your option) any later version.
   
   xtb is distributed in the hope that it will be useful,
   but WITHOUT ANY WARRANTY; without even the implied warranty of
   MERCHANTABILITY or FITNESS FOR A PARTICULAR PURPOSE.  See the
   GNU Lesser General Public License for more details.
   
   Cite this work as:
   * C. Bannwarth, E. Caldeweyher, S. Ehlert, A. Hansen, P. Pracht,
     J. Seibert, S. Spicher, S. Grimme, WIREs Comput. Mol. Sci., 2020, 11,
     e01493. DOI: 10.1002/wcms.1493
   
   for GFN2-xTB:
   * C. Bannwarth, S. Ehlert and S. Grimme., J. Chem. Theory Comput., 2019,
     15, 1652-1671. DOI: 10.1021/acs.jctc.8b01176
   for GFN1-xTB:
   * S. Grimme, C. Bannwarth, P. Shushkov, J. Chem. Theory Comput., 2017,
     13, 1989-2009. DOI: 10.1021/acs.jctc.7b00118
   for GFN0-xTB:
   * P. Pracht, E. Caldeweyher, S. Ehlert, S. Grimme, ChemRxiv, 2019, preprint.
     DOI: 10.26434/chemrxiv.8326202.v1
   for GFN-FF:
   * S. Spicher and S. Grimme, Angew. Chem. Int. Ed., 2020, 59, 15665-15673.
     DOI: 10.1002/anie.202004239
   
   for ALPB and GBSA implicit solvation:
   * S. Ehlert, M. Stahn, S. Spicher, S. Grimme, J. Chem. Theory Comput.,
     2021, 17, 4250-4261. DOI: 10.1021/acs.jctc.1c00471
   
   for DFT-D4:
   * E. Caldeweyher, C. Bannwarth and S. Grimme, J. Chem. Phys., 2017,
     147, 034112. DOI: 10.1063/1.4993215
   * E. Caldeweyher, S. Ehlert, A. Hansen, H. Neugebauer, S. Spicher,
     C. Bannwarth and S. Grimme, J. Chem. Phys., 2019, 150, 154122.
     DOI: 10.1063/1.5090222
   * E. Caldeweyher, J.-M. Mewes, S. Ehlert and S. Grimme, Phys. Chem. Chem. Phys.
     2020, 22, 8499-8512. DOI: 10.1039/D0CP00502A
   
   for sTDA-xTB:
   * S. Grimme and C. Bannwarth, J. Chem. Phys., 2016, 145, 054103.
     DOI: 10.1063/1.4959605
   
   in the mass-spec context:
   * V. Asgeirsson, C. Bauer and S. Grimme, Chem. Sci., 2017, 8, 4879.
     DOI: 10.1039/c7sc00601b
   * J. Koopman and S. Grimme, ACS Omega 2019, 4, 12, 15120-15133.
     DOI: 10.1021/acsomega.9b02011
   
   for metadynamics refer to:
   * S. Grimme, J. Chem. Theory Comput., 2019, 155, 2847-2862
     DOI: 10.1021/acs.jctc.9b00143
   
   for SPH calculations refer to:
   * S. Spicher and S. Grimme, J. Chem. Theory Comput., 2021, 17, 1701-1714
     DOI: 10.1021/acs.jctc.0c01306
   
   with help from (in alphabetical order)
   P. Atkinson, C. Bannwarth, F. Bohle, G. Brandenburg, E. Caldeweyher
   M. Checinski, S. Dohm, S. Ehlert, S. Ehrlich, I. Gerasimov, C. Hölzer
   A. Katbashev, J. Koopman, C. Lavigne, S. Lehtola, F. März, M. Müller,
   F. Musil, H. Neugebauer, J. Pisarek, C. Plett, P. Pracht, F. Pultar,
   J. Seibert, P. Shushkov, S. Spicher, M. Stahn, M. Steiner, T. Strunk,
   J. Stückrath, T. Rose, and J. Unsleber
   
 * started run on 2025/07/30 at 12:34:41.862     

           -------------------------------------------------
          |                Calculation Setup                |
           -------------------------------------------------

          program call               : xtb --gfn2 in.xyz --ohess vtight
          coordinate file            : in.xyz
          omp threads                :                     8

   ID    Z sym.   atoms
    1    6 C      1-3
    2    8 O      4, 5
    3    7 N      6
    4    1 H      7-13

           -------------------------------------------------
          |                 G F N 2 - x T B                 |
           -------------------------------------------------

        Reference                      10.1021/acs.jctc.8b01176
      * Hamiltonian:
        H0-scaling (s, p, d)           1.850000    2.230000    2.230000
        zeta-weighting                 0.500000
      * Dispersion:
        s8                             2.700000
        a1                             0.520000
        a2                             5.000000
        s9                             5.000000
      * Repulsion:
        kExp                           1.500000    1.000000
        rExp                           1.000000
      * Coulomb:
        alpha                          2.000000
        third order                    shell-resolved
        anisotropic                    true
        a3                             3.000000
        a5                             4.000000
        cn-shift                       1.200000
        cn-exp                         4.000000
        max-rad                        5.000000


          ...................................................
          :                      SETUP                      :
          :.................................................:
          :  # basis functions                  31          :
          :  # atomic orbitals                  31          :
          :  # shells                           19          :
          :  # electrons                        36          :
          :  max. iterations                   250          :
          :  Hamiltonian                  GFN2-xTB          :
          :  restarted?                      false          :
          :  GBSA solvation                  false          :
          :  PC potential                    false          :
          :  electronic temp.          300.0000000     K    :
          :  accuracy                    1.0000000          :
          :  -> integral cutoff          0.2500000E+02      :
          :  -> integral neglect         0.1000000E-07      :
          :  -> SCF convergence          0.1000000E-05 Eh   :
          :  -> wf. convergence          0.1000000E-03 e    :
          :  Broyden damping             0.4000000          :
          ...................................................

 iter      E             dE          RMSdq      gap      omega  full diag
   1    -21.2093273 -0.212093E+02  0.423E+00    4.32       0.0  T
   2    -21.2452053 -0.358780E-01  0.220E+00    3.96       1.0  T
   3    -21.2469732 -0.176793E-02  0.120E+00    4.15       1.0  T
   4    -21.2494988 -0.252559E-02  0.177E-01    3.75       1.0  T
   5    -21.2496182 -0.119434E-03  0.716E-02    3.74       1.0  T
   6    -21.2496228 -0.455705E-05  0.230E-02    3.74       1.2  T
   7    -21.2496251 -0.229524E-05  0.687E-03    3.74       4.0  T
   8    -21.2496252 -0.837430E-07  0.315E-03    3.75       8.8  T
   9    -21.2496252 -0.275237E-07  0.862E-04    3.74      32.2  T
  10    -21.2496252 -0.446992E-08  0.342E-04    3.74      81.2  T

   *** convergence criteria satisfied after 10 iterations ***

         #    Occupation            Energy/Eh            Energy/eV
      -------------------------------------------------------------
         1        2.0000           -0.7496978             -20.4003
       ...           ...                  ...                  ...
        12        2.0000           -0.4997257             -13.5982
        13        2.0000           -0.4807335             -13.0814
        14        2.0000           -0.4731945             -12.8763
        15        2.0000           -0.4626610             -12.5896
        16        2.0000           -0.4600552             -12.5187
        17        2.0000           -0.4219479             -11.4818
        18        2.0000           -0.3757755             -10.2254 (HOMO)
        19                         -0.2381521              -6.4804 (LUMO)
        20                          0.0318000               0.8653
        21                          0.0467752               1.2728
        22                          0.0987415               2.6869
        23                          0.1121224               3.0510
       ...                                ...                  ...
        31                          0.6413062              17.4508
      -------------------------------------------------------------
                  HL-Gap            0.1376233 Eh            3.7449 eV
             Fermi-level           -0.3069638 Eh           -8.3529 eV

 SCC (total)                   0 d,  0 h,  0 min,  0.011 sec
 SCC setup                      ...        0 min,  0.000 sec (  1.563%)
 Dispersion                     ...        0 min,  0.000 sec (  1.646%)
 classical contributions        ...        0 min,  0.000 sec (  0.901%)
 integral evaluation            ...        0 min,  0.001 sec (  5.379%)
 iterations                     ...        0 min,  0.009 sec ( 81.445%)
 molecular gradient             ...        0 min,  0.001 sec (  8.007%)
 printout                       ...        0 min,  0.000 sec (  0.846%)

         :::::::::::::::::::::::::::::::::::::::::::::::::::::
         ::                     SUMMARY                     ::
         :::::::::::::::::::::::::::::::::::::::::::::::::::::
         :: total energy             -21.039916819159 Eh    ::
         :: gradient norm              0.000150538120 Eh/a0 ::
         :: HOMO-LUMO gap              3.744921242651 eV    ::
         ::.................................................::
         :: SCC energy               -21.249625194294 Eh    ::
         :: -> isotropic ES            0.057847002027 Eh    ::
         :: -> anisotropic ES          0.003429697832 Eh    ::
         :: -> anisotropic XC          0.006435478523 Eh    ::
         :: -> dispersion             -0.006946052559 Eh    ::
         :: repulsion energy           0.209698908998 Eh    ::
         :: add. restraining           0.000000000000 Eh    ::
         :: total charge              -0.000000000000 e     ::
         :::::::::::::::::::::::::::::::::::::::::::::::::::::

      ----------------------------------------------------------- 
     |                   =====================                   |
     |                        A N C O P T                        |
     |                   =====================                   |
     |               Approximate Normal Coordinate               |
     |                Rational Function Optimizer                |
      ----------------------------------------------------------- 

          ...................................................
          :                      SETUP                      :
          :.................................................:
          :   optimization level         verytight          :
          :   max. optcycles                   260          :
          :   ANC micro-cycles                  20          :
          :   degrees of freedom                33          :
          :.................................................:
          :   RF solver                   davidson          :
          :   write xtbopt.log                true          :
          :   linear?                        false          :
          :   energy convergence         0.1000000E-06 Eh   :
          :   grad. convergence          0.2000000E-03 Eh/α :
          :   maxmium RF displ.          1.0000000          :
          :   Hlow (freq-cutoff)         0.1000000E-01      :
          :   Hmax (freq-cutoff)         5.0000000          :
          :   S6 in model hess.         20.0000000          :
          ...................................................

generating ANC from model Hessian ...
Using Lindh-Hessian (1995)
 Shifting diagonal of input Hessian by   3.405561481603511E-003
 Lowest  eigenvalues of input Hessian
    0.000000    0.000000    0.000000    0.000000    0.000000    0.000000
    0.010000    0.012889    0.014366    0.017338    0.021787    0.028637
    0.047528    0.059499    0.066765    0.068673    0.070598    0.093097
 Highest eigenvalues
    1.167104    1.246676    1.368308    1.468999    1.758488    2.359569
 

........................................................................
.............................. CYCLE    1 ..............................
........................................................................

 iter      E             dE          RMSdq      gap      omega  full diag
   1    -21.2496252 -0.212496E+02  0.590E-05    3.74       0.0  T
   2    -21.2496252 -0.103384E-10  0.345E-05    3.74     803.7  T
   3    -21.2496252 -0.186162E-11  0.205E-05    3.74    1354.0  T
     SCC iter.                  ...        0 min,  0.001 sec
     gradient                   ...        0 min,  0.001 sec
 * total energy  :   -21.0399168 Eh     change       -0.1302070E-09 Eh
   gradient norm :     0.0001532 Eh/α   predicted     0.0000000E+00 (-100.00%)
   displ. norm   :     0.0008769 α      lambda       -0.3436605E-07
   maximum displ.:     0.0004749 α      in ANC's #11, #3, #2, ...

   *** GEOMETRY OPTIMIZATION CONVERGED AFTER 1 ITERATIONS ***

------------------------------------------------------------------------
 total energy gain   :        -0.0000000 Eh       -0.0000 kcal/mol
 total RMSD          :         0.0000000 a0        0.0000 Å
 total power (kW/mol):        -0.0000003 (step)   -0.0000 (real)
------------------------------------------------------------------------

 ANCopt (total)                0 d,  0 h,  0 min,  0.010 sec
 optimizer setup                ...        0 min,  0.000 sec (  0.875%)
 model hessian                  ...        0 min,  0.007 sec ( 70.999%)
 ANC generation                 ...        0 min,  0.000 sec (  2.724%)
 coordinate transformation      ...        0 min,  0.000 sec (  0.083%)
 single point calculation       ...        0 min,  0.002 sec ( 22.212%)
 optimization log               ...        0 min,  0.000 sec (  0.782%)
 hessian update                 ...        0 min,  0.000 sec (  0.012%)
 rational function              ...        0 min,  0.000 sec (  1.410%)

================
 final structure:
================
13
 xtb: 6.6.0 (8843059)
C           -1.44574500000000       -0.51865400000000       -1.18030000000000
C           -0.67169300000000       -0.47813800000000        0.13448800000000
C            0.73811300000000        0.04751200000000       -0.09604800000000
O            1.32644000000000        0.01680400000000       -1.14181400000000
O            1.30368900000000        0.50326300000000        1.02910000000000
N           -1.36982600000000        0.35391500000000        1.09830700000000
H           -1.66726700000000        0.49624000000000       -1.49742000000000
H           -0.84952700000000       -1.00637700000000       -1.94553300000000
H           -2.37956600000000       -1.05913800000000       -1.05089200000000
H           -0.51770600000000       -1.51936100000000        0.49088800000000
H            2.20227300000000        0.81963100000000        0.84436200000000
H           -2.25184500000000       -0.07322100000000        1.35662900000000
H           -0.81344500000000        0.48079500000000        1.93548800000000
 
 Bond Distances (Angstroems)
 ---------------------------
C1-C2=1.5263         C1-H7=1.0861         C1-H8=1.0858         C1-H9=1.0867         C2-C1=1.5263         C2-C3=1.5222         
C2-N6=1.4521         C2-H10=1.1113        C3-C2=1.5222         C3-O4=1.2003         C3-O5=1.3392         O4-C3=1.2003         
O5-C3=1.3392         O5-H11=0.9704        N6-C2=1.4521         N6-H12=1.0135        N6-H13=1.0132        H7-C1=1.0861         
H8-C1=1.0858         H9-C1=1.0867         H10-C2=1.1113        H11-O5=0.9704        H12-N6=1.0135        H13-N6=1.0132        
 C  H  Rav=1.0925 sigma=0.0109  Rmin=1.0858  Rmax=1.1113     4
 C  C  Rav=1.5242 sigma=0.0020  Rmin=1.5222  Rmax=1.5263     2
 N  H  Rav=1.0133 sigma=0.0001  Rmin=1.0132  Rmax=1.0135     2
 N  C  Rav=1.4521 sigma=0.0000  Rmin=1.4521  Rmax=1.4521     1
 O  H  Rav=0.9704 sigma=0.0000  Rmin=0.9704  Rmax=0.9704     1
 O  C  Rav=1.2698 sigma=0.0695  Rmin=1.2003  Rmax=1.3392     2
 
 selected bond angles (degree)
 --------------------
H7-C1-C2=109.28                H8-C1-C2=109.91                H8-C1-H7=109.02                H9-C1-C2=110.27                
H9-C1-H7=108.92                H9-C1-H8=109.41                C3-C2-C1=110.39                N6-C2-C1=110.07                
N6-C2-C3=110.36                H10-C2-C1=108.76               H10-C2-C3=104.11               H10-C2-N6=112.99               
O4-C3-C2=125.25                O5-C3-C2=112.42                O5-C3-O4=122.26                H11-O5-C3=110.00               
H12-N6-C2=110.25               H13-N6-C2=110.87               H13-N6-H12=108.67              
 
 selected dihedral angles (degree)
 ---------------------------------
C3-C2-C1-H7=289.34            C3-C2-C1-H8= 48.94            C3-C2-C1-H9=169.65            N6-C2-C1-H7= 51.41            
N6-C2-C1-H8=171.01            N6-C2-C1-H9=291.72            H10-C2-C1-H7=175.70           H10-C2-C1-H8=295.30           
H10-C2-C1-H9= 56.01           O4-C3-C2-C1=336.82            O4-C3-C2-N6=214.92            O4-C3-C2-H10= 93.39           
O5-C3-C2-C1=159.97            O5-C3-C2-N6= 38.07            O5-C3-C2-H10=276.54           H11-O5-C3-C2=179.37           
H11-O5-C3-O4=  2.41           H12-N6-C2-C1= 66.47           H12-N6-C2-C3=188.56           H12-N6-C2-H10=304.67          
H13-N6-C2-C1=186.85           H13-N6-C2-C3=308.94           H13-N6-C2-H10= 65.05          
           -------------------------------------------------
          |                Final Singlepoint                |
           -------------------------------------------------

          ...................................................
          :                      SETUP                      :
          :.................................................:
          :  # basis functions                  31          :
          :  # atomic orbitals                  31          :
          :  # shells                           19          :
          :  # electrons                        36          :
          :  max. iterations                   250          :
          :  Hamiltonian                  GFN2-xTB          :
          :  restarted?                      false          :
          :  GBSA solvation                  false          :
          :  PC potential                    false          :
          :  electronic temp.          300.0000000     K    :
          :  accuracy                    1.0000000          :
          :  -> integral cutoff          0.2500000E+02      :
          :  -> integral neglect         0.1000000E-07      :
          :  -> SCF convergence          0.1000000E-05 Eh   :
          :  -> wf. convergence          0.1000000E-03 e    :
          :  Broyden damping             0.4000000          :
          ...................................................

 iter      E             dE          RMSdq      gap      omega  full diag
   1    -21.2496252 -0.212496E+02  0.497E-06    3.74       0.0  T
   2    -21.2496252 -0.603961E-13  0.305E-06    3.74    9100.1  T
   3    -21.2496252  0.106581E-13  0.123E-06    3.74   22510.0  T

   *** convergence criteria satisfied after 3 iterations ***

         #    Occupation            Energy/Eh            Energy/eV
      -------------------------------------------------------------
         1        2.0000           -0.7496974             -20.4003
       ...           ...                  ...                  ...
        12        2.0000           -0.4997262             -13.5982
        13        2.0000           -0.4807321             -13.0814
        14        2.0000           -0.4731954             -12.8763
        15        2.0000           -0.4626622             -12.5897
        16        2.0000           -0.4600562             -12.5188
        17        2.0000           -0.4219478             -11.4818
        18        2.0000           -0.3757763             -10.2254 (HOMO)
        19                         -0.2381523              -6.4805 (LUMO)
        20                          0.0318009               0.8653
        21                          0.0467746               1.2728
        22                          0.0987399               2.6868
        23                          0.1121217               3.0510
       ...                                ...                  ...
        31                          0.6413057              17.4508
      -------------------------------------------------------------
                  HL-Gap            0.1376240 Eh            3.7449 eV
             Fermi-level           -0.3069643 Eh           -8.3529 eV

 SCC (total)                   0 d,  0 h,  0 min,  0.002 sec
 SCC setup                      ...        0 min,  0.000 sec (  2.517%)
 Dispersion                     ...        0 min,  0.000 sec (  1.940%)
 classical contributions        ...        0 min,  0.000 sec (  0.381%)
 integral evaluation            ...        0 min,  0.000 sec ( 14.721%)
 iterations                     ...        0 min,  0.001 sec ( 40.723%)
 molecular gradient             ...        0 min,  0.001 sec ( 35.735%)
 printout                       ...        0 min,  0.000 sec (  3.198%)

         :::::::::::::::::::::::::::::::::::::::::::::::::::::
         ::                     SUMMARY                     ::
         :::::::::::::::::::::::::::::::::::::::::::::::::::::
         :: total energy             -21.039916819290 Eh    ::
         :: gradient norm              0.000153365637 Eh/a0 ::
         :: HOMO-LUMO gap              3.744940517319 eV    ::
         ::.................................................::
         :: SCC energy               -21.249625194424 Eh    ::
         :: -> isotropic ES            0.057845693542 Eh    ::
         :: -> anisotropic ES          0.003429808088 Eh    ::
         :: -> anisotropic XC          0.006435482363 Eh    ::
         :: -> dispersion             -0.006946051101 Eh    ::
         :: repulsion energy           0.209698908998 Eh    ::
         :: add. restraining           0.000000000000 Eh    ::
         :: total charge               0.000000000000 e     ::
         :::::::::::::::::::::::::::::::::::::::::::::::::::::

           ------------------------------------------------- 
          |                Numerical Hessian                |
           ------------------------------------------------- 
step length          :   0.00500
SCC accuracy         :   0.30000
Hessian scale factor :   1.00000
frozen atoms in %    :   0.00000    0
RMS gradient         :   0.00015
estimated CPU  time      0.03 min
estimated wall time      0.00 min

writing file <hessian>.

 projected vibrational frequencies (cm⁻¹)
eigval :       -0.00    -0.00    -0.00     0.00     0.00     0.00
eigval :       40.71   166.08   231.32   240.19   302.66   386.38
eigval :      469.46   545.06   616.67   710.09   808.82   909.83
eigval :      967.38  1019.36  1067.19  1126.22  1166.94  1188.03
eigval :     1225.22  1288.94  1319.50  1398.34  1474.37  1486.44
eigval :     1543.00  1796.71  2729.93  3043.74  3060.81  3060.89
eigval :     3403.06  3437.41  3444.65
           -------------------------------------------------
          |                Property Printout                |
           -------------------------------------------------

    * Orbital Energies and Occupations

         #    Occupation            Energy/Eh            Energy/eV
      -------------------------------------------------------------
         1        2.0000           -0.7496974             -20.4003
       ...           ...                  ...                  ...
         6        2.0000           -0.5955405             -16.2055
         7        2.0000           -0.5861747             -15.9506
         8        2.0000           -0.5817133             -15.8292
         9        2.0000           -0.5548097             -15.0971
        10        2.0000           -0.5285116             -14.3815
        11        2.0000           -0.5180889             -14.0979
        12        2.0000           -0.4997262             -13.5982
        13        2.0000           -0.4807321             -13.0814
        14        2.0000           -0.4731954             -12.8763
        15        2.0000           -0.4626622             -12.5897
        16        2.0000           -0.4600562             -12.5188
        17        2.0000           -0.4219478             -11.4818
        18        2.0000           -0.3757763             -10.2254 (HOMO)
        19                         -0.2381523              -6.4805 (LUMO)
        20                          0.0318009               0.8653
        21                          0.0467746               1.2728
        22                          0.0987399               2.6868
        23                          0.1121217               3.0510
        24                          0.1526174               4.1529
        25                          0.1733727               4.7177
        26                          0.1827359               4.9725
        27                          0.2370156               6.4495
        28                          0.2417853               6.5793
        29                          0.2593472               7.0572
       ...                                ...                  ...
        31                          0.6413057              17.4508
      -------------------------------------------------------------
                  HL-Gap            0.1376240 Eh            3.7449 eV
             Fermi-level           -0.3069643 Eh           -8.3529 eV

     #   Z          covCN         q      C6AA      α(0)
     1   6 C        3.757    -0.118    22.805     6.809
     2   6 C        3.780     0.042    19.884     6.352
     3   6 C        2.692     0.355    20.972     7.495
     4   8 O        0.856    -0.401    21.710     6.247
     5   8 O        1.659    -0.374    20.351     6.090
     6   7 N        2.634    -0.338    28.714     7.958
     7   1 H        0.925     0.063     2.168     2.303
     8   1 H        0.925     0.062     2.173     2.305
     9   1 H        0.925     0.047     2.356     2.400
    10   1 H        0.921     0.031     2.578     2.511
    11   1 H        0.804     0.332     0.633     1.249
    12   1 H        0.860     0.146     1.428     1.872
    13   1 H        0.860     0.154     1.377     1.839

 Mol. C6AA /au·bohr⁶  :       1405.523886
 Mol. C8AA /au·bohr⁸  :      29715.409725
 Mol. α(0) /au        :         55.430749


Wiberg/Mayer (AO) data.
largest (>0.10) Wiberg bond orders for each atom

 ---------------------------------------------------------------------------
     #   Z sym  total        # sym  WBO       # sym  WBO       # sym  WBO
 ---------------------------------------------------------------------------
     1   6 C    3.991 --     2 C    1.001     9 H    0.986     7 H    0.985
                             8 H    0.982
     2   6 C    3.988 --     6 N    1.020     1 C    1.001     3 C    0.951
                            10 H    0.930
     3   6 C    3.910 --     4 O    1.776     5 O    1.133     2 C    0.951
     4   8 O    2.047 --     3 C    1.776     5 O    0.173
     5   8 O    2.202 --     3 C    1.133    11 H    0.864     4 O    0.173
     6   7 N    3.005 --     2 C    1.020    12 H    0.964    13 H    0.959
     7   1 H    0.996 --     1 C    0.985
     8   1 H    0.996 --     1 C    0.982
     9   1 H    0.997 --     1 C    0.986
    10   1 H    0.999 --     2 C    0.930
    11   1 H    0.889 --     5 O    0.864
    12   1 H    0.979 --     6 N    0.964
    13   1 H    0.976 --     6 N    0.959
 ---------------------------------------------------------------------------

Topologies differ in total number of bonds
Writing topology from bond orders to xtbtopo.mol

molecular dipole:
                 x           y           z       tot (Debye)
 q only:       -0.304      -0.094       0.639
   full:       -0.156      -0.366       0.935       2.584
molecular quadrupole (traceless):
                xx          xy          yy          xz          yz          zz
 q only:        2.750       2.972      -0.640       3.664       0.369      -2.110
  q+dip:        3.646       4.913      -0.271       3.450      -1.182      -3.375
   full:        3.519       4.680      -0.248       3.664      -0.961      -3.271

           -------------------------------------------------
          |                Geometry Summary                 |
           -------------------------------------------------

      molecular mass/u    :       89.0933060
   center of mass at/Å    :        0.0000013       0.0000020       0.0000034
  moments of inertia/u·Å² :        0.9891903E+02   0.1497109E+03   0.2350958E+03
rotational constants/cm⁻¹ :        0.1704185E+00   0.1126012E+00   0.7170536E-01

 * 11 selected distances

     #   Z          #   Z                                           value/Å
     1   6 C        2   6 C                                       1.5262588 (max)
     3   6 C        4   8 O                                       1.2002910
     3   6 C        5   8 O                                       1.3392324
     2   6 C        6   7 N                                       1.4521189
     1   6 C        7   1 H                                       1.0861156
     1   6 C        8   1 H                                       1.0857861
     1   6 C        9   1 H                                       1.0866882
     2   6 C       10   1 H                                       1.1112509
     5   8 O       11   1 H                                       0.9703969 (min)
     6   7 N       12   1 H                                       1.0134758
     6   7 N       13   1 H                                       1.0131784

 * 6 distinct bonds (by element types)

   Z      Z             #   av. dist./Å        max./Å        min./Å
   1 H    6 C           4     1.0924602     1.1112509     1.0857861
   6 C    6 C           1     1.5262588     1.5262588     1.5262588
   1 H    7 N           2     1.0133271     1.0134758     1.0131784
   6 C    7 N           1     1.4521189     1.4521189     1.4521189
   1 H    8 O           1     0.9703969     0.9703969     0.9703969
   6 C    8 O           2     1.2697617     1.3392324     1.2002910

           -------------------------------------------------
          |               Frequency Printout                |
           -------------------------------------------------
 projected vibrational frequencies (cm⁻¹)
eigval :       -0.00    -0.00    -0.00     0.00     0.00     0.00
eigval :       40.71   166.08   231.32   240.19   302.66   386.38
eigval :      469.46   545.06   616.67   710.09   808.82   909.83
eigval :      967.38  1019.36  1067.19  1126.22  1166.94  1188.03
eigval :     1225.22  1288.94  1319.50  1398.34  1474.37  1486.44
eigval :     1543.00  1796.71  2729.93  3043.74  3060.81  3060.89
eigval :     3403.06  3437.41  3444.65
 reduced masses (amu)
   1: 12.43   2: 12.92   3: 12.49   4: 12.50   5: 12.85   6: 11.89   7: 13.11   8:  1.54
   9:  2.10  10: 11.74  11:  9.96  12:  9.35  13: 11.84  14: 11.87  15:  4.75  16: 10.23
  17:  9.54  18:  4.19  19:  6.36  20:  4.23  21:  5.76  22:  9.94  23:  7.90  24:  4.46
  25:  6.87  26:  5.01  27:  7.29  28:  3.24  29:  1.54  30:  1.59  31:  2.13  32: 13.31
  33:  1.69  34:  1.73  35:  1.88  36:  1.56  37:  1.51  38:  2.07  39:  1.85
 IR intensities (km·mol⁻¹)
   1:  1.09   2:  0.86   3:  0.44   4:  0.36   5:  0.83   6:  0.69   7:  1.68   8:  0.44
   9: 39.85  10:  4.12  11:  6.74  12:  7.62  13: 13.33  14: 23.55  15: 80.29  16:140.17
  17: 34.59  18:111.53  19: 27.36  20:  1.89  21: 24.69  22:309.57  23: 35.23  24:  8.29
  25: 98.12  26: 22.51  27: 14.61  28: 10.06  29:  3.52  30:  3.68  31: 37.20  32:436.94
  33: 84.43  34: 27.40  35: 15.73  36:  9.73  37:  7.35  38:  0.50  39: 32.73
 Raman intensities (amu)
   1:  0.00   2:  0.00   3:  0.00   4:  0.00   5:  0.00   6:  0.00   7:  0.00   8:  0.00
   9:  0.00  10:  0.00  11:  0.00  12:  0.00  13:  0.00  14:  0.00  15:  0.00  16:  0.00
  17:  0.00  18:  0.00  19:  0.00  20:  0.00  21:  0.00  22:  0.00  23:  0.00  24:  0.00
  25:  0.00  26:  0.00  27:  0.00  28:  0.00  29:  0.00  30:  0.00  31:  0.00  32:  0.00
  33:  0.00  34:  0.00  35:  0.00  36:  0.00  37:  0.00  38:  0.00  39:  0.00
 output can be read by thermo (or use thermo option).
 writing <g98.out> molden fake output.
 recommended (thermochemical) frequency scaling factor: 1.0
           -------------------------------------------------
          |             Thermodynamic Functions             |
           -------------------------------------------------

Molecule has no symmetry elements
It seems to be the C1 point group
c1  symmetry found (for desy threshold:  0.10E+00) used in thermo

          ...................................................
          :                      SETUP                      :
          :.................................................:
          :  # frequencies                          33      :
          :  # imaginary freq.                       0      :
          :  linear?                             false      :
          :  only rotor calc.                    false      :
          :  symmetry                               c1      :
          :  rotational number                       1      :
          :  scaling factor                  1.0000000      :
          :  rotor cutoff                   50.0000000 cm⁻¹ :
          :  imag. cutoff                  -20.0000000 cm⁻¹ :
          :.................................................:

    mode    ω/cm⁻¹     T·S(HO)/kcal·mol⁻¹    T·S(FR)/kcal·mol⁻¹   T·S(vib)
   ------------------------------------------------------------------------
       1     40.71    -1.55759 ( 30.53%)    -1.11668 ( 69.47%)    -1.25129
       2    166.08    -0.73921 ( 99.19%)    -0.70073 (  0.81%)    -0.73890
       3    231.32    -0.55714 ( 99.78%)    -0.60263 (  0.22%)    -0.55723
       4    240.19    -0.53712 ( 99.81%)    -0.59150 (  0.19%)    -0.53722
   ------------------------------------------------------------------------

   temp. (K)  partition function   enthalpy   heat capacity  entropy
                                   cal/mol     cal/K/mol   cal/K/mol   J/K/mol
 298.15  VIB   48.0                 2683.424     17.925     15.667
         ROT  0.143E+06              888.752      2.981     26.564
         INT  0.684E+07             3572.176     20.906     42.231
         TR   0.814E+27             1481.254      4.968     39.356
         TOT                        5053.4303    25.8737    81.5870   341.3601

       T/K    H(0)-H(T)+PV         H(T)/Eh          T*S/Eh         G(T)/Eh
   ------------------------------------------------------------------------
    298.15    0.805315E-02    0.112109E+00    0.387646E-01    0.733448E-01
   ------------------------------------------------------------------------

         :::::::::::::::::::::::::::::::::::::::::::::::::::::
         ::                  THERMODYNAMIC                  ::
         :::::::::::::::::::::::::::::::::::::::::::::::::::::
         :: total free energy         -20.966572055758 Eh   ::
         ::.................................................::
         :: total energy              -21.039916819290 Eh   ::
         :: zero point energy           0.104056232156 Eh   ::
         :: G(RRHO) w/o ZPVE           -0.030711468624 Eh   ::
         :: G(RRHO) contrib.            0.073344763532 Eh   ::
         :::::::::::::::::::::::::::::::::::::::::::::::::::::

optimized geometry written to: xtbopt.xyz


           -------------------------------------------------
          | TOTAL ENERGY              -21.039916819290 Eh   |
          | TOTAL ENTHALPY            -20.927807433345 Eh   |
          | TOTAL FREE ENERGY         -20.966572055758 Eh   |
          | GRADIENT NORM               0.000153362439 Eh/α |
          | HOMO-LUMO GAP               3.744940588268 eV   |
           -------------------------------------------------

------------------------------------------------------------------------
 * finished run on 2025/07/30 at 12:34:41.979     
------------------------------------------------------------------------
 total:
 * wall-time:     0 d,  0 h,  0 min,  0.117 sec
 *  cpu-time:     0 d,  0 h,  0 min,  0.885 sec
 * ratio c/w:     7.557 speedup
 SCF:
 * wall-time:     0 d,  0 h,  0 min,  0.011 sec
 *  cpu-time:     0 d,  0 h,  0 min,  0.078 sec
 * ratio c/w:     7.059 speedup
 ANC optimizer:
 * wall-time:     0 d,  0 h,  0 min,  0.013 sec
 *  cpu-time:     0 d,  0 h,  0 min,  0.095 sec
 * ratio c/w:     7.617 speedup
 analytical hessian:
 * wall-time:     0 d,  0 h,  0 min,  0.082 sec
 *  cpu-time:     0 d,  0 h,  0 min,  0.633 sec
 * ratio c/w:     7.733 speedup

