13
 energy: -21.039916819290 gnorm: 0.000153365637 xtb: 6.6.0 (8843059)
C           -1.44575183566923       -0.51864849007953       -1.18029404816693
C           -0.67169503405559       -0.47813424829301        0.13449117915810
C            0.73811291348570        0.04750796761502       -0.09605065942377
O            1.32643610226599        0.01679506195564       -1.14181865946888
O            1.30369522729610        0.50325796999222        1.02909457089943
N           -1.36982031305572        0.35392408927403        1.09831116388821
H           -1.66726962865899        0.49624611631848       -1.49741504623105
H           -0.84953906056379       -1.00637594743180       -1.94552827811732
H           -2.37957521389473       -1.05912737473877       -1.05088184519517
H           -0.51771224180923       -1.51935743252237        0.49089245891631
H            2.20228023891639        0.81962094258732        0.84435288208463
H           -2.25184064779827       -0.07320684162655        1.35663698820632
H           -0.81343572640476        0.48080263720919        1.93549000029839
