13
 energy: -21.040081983201 gnorm: 0.000062706548 xtb: 6.6.0 (8843059)
C           -1.11217000000000       -1.49272300000000       -0.10810700000000
C           -0.70568400000000       -0.13959300000000        0.47627900000000
C            0.77331100000000        0.09282000000000        0.11454200000000
O            1.68106300000000       -0.41214200000000        0.71006400000000
O            0.93185300000000        0.88097500000000       -0.94249700000000
N           -1.49061000000000        0.93230900000000       -0.13364600000000
H           -0.44526400000000       -2.26600600000000        0.26243200000000
H           -2.13216600000000       -1.74076600000000        0.17943700000000
H           -1.04993200000000       -1.46355000000000       -1.19399800000000
H           -0.78681900000000       -0.18124800000000        1.57192300000000
H            0.03660000000000        1.18605900000000       -1.21513900000000
H           -2.45574500000000        0.64952600000000       -0.25825900000000
H           -1.48155300000000        1.76348100000000        0.44805800000000
