13
 energy: -21.040081983202 gnorm: 0.000062792670 xtb: 6.6.0 (8843059)
C           -1.11217819321384       -1.49271736534910       -0.10810051250039
C           -0.70568306836072       -0.13958847379012        0.47628170693397
C            0.77331188581656        0.09281615086307        0.11453913863305
O            1.68106332059619       -0.41214956273652        0.71005885130122
O            0.93185432280671        0.88096847586533       -0.94250179036486
N           -1.49060558493142        0.93231657154768       -0.13364242397468
H           -0.44527494869416       -2.26600321054318        0.26243750918913
H           -2.13217448822171       -1.74075452280505        0.17944748087183
H           -1.04994383095036       -1.46354658644443       -1.19399178066022
H           -0.78681446193487       -0.18124113672813        1.57192606284190
H            0.03660196853606        1.18605668754935       -1.21514119781231
H           -2.45574250054148        0.64953840749859       -0.25825156146759
H           -1.48154220239492        1.76348953936705        0.44806009373719
