 Entering Gaussian System
 *********************************************
 Gaussian 98:
 frequency output generated by the xtb code
 *********************************************
                         Standard orientation:
 --------------------------------------------------------------------
  Center     Atomic     Atomic              Coordinates (Angstroms)
  Number     Number      Type              X           Y           Z
 --------------------------------------------------------------------
    1          6             0       -1.194574   -1.310265   -0.552071
    2          6             0       -0.725062   -0.193160    0.390480
    3          6             0        0.710556    0.150021    0.032724
    4          8             0        1.055303    1.158669   -0.523730
    5          8             0        1.566697   -0.809582    0.391667
    6          7             0       -1.557207    0.997430    0.339659
    7          1             0       -2.214872   -1.590826   -0.301507
    8          1             0       -1.165055   -0.968206   -1.585581
    9          1             0       -0.555172   -2.182965   -0.450119
   10          1             0       -0.722987   -0.580173    1.419586
   11          1             0        2.472083   -0.566529    0.139851
   12          1             0       -2.365367    0.849434   -0.253368
   13          1             0       -1.021456    1.764962   -0.057020
 --------------------------------------------------------------------
     1 basis functions        1 primitive gaussians
     1 alpha electrons        1 beta electrons
 
 Harmonic frequencies (cm**-1), IR intensities (km*mol⁻¹),
 Raman scattering activities (A**4/amu), Raman depolarization ratios,
 reduced masses (AMU), force constants (mDyne/A) and normal coordinates:
                      1                      2                      3
                        a                      a                      a 
 Frequencies --  -152.9617                80.6367               216.8130
 Red. masses --     2.8981                12.2689                 6.3161
 Frc consts  --     0.0000                 0.0000                 0.0000
 IR Inten    --    31.8073                 6.7326                 0.4305
 Raman Activ --     0.0000                 0.0000                 0.0000
 Depolar     --     0.0000                 0.0000                 0.0000
 Atom AN      X      Y      Z        X      Y      Z        X      Y      Z
   1   6    -0.06  -0.06   0.18    -0.06   0.19  -0.29     0.45   0.09  -0.02
   2   6     0.02   0.03  -0.01     0.02  -0.08  -0.01    -0.03   0.12   0.20
   3   6     0.03  -0.01  -0.06     0.00  -0.06  -0.04    -0.06   0.04   0.09
   4   8     0.05   0.09   0.11    -0.10  -0.26  -0.46    -0.07  -0.11  -0.17
   5   8     0.03  -0.04  -0.14     0.11   0.21   0.45    -0.19  -0.15  -0.14
   6   7    -0.18  -0.10  -0.11    -0.01  -0.08   0.33    -0.15   0.04   0.11
   7   1    -0.02   0.02   0.07    -0.02   0.06  -0.10     0.00   0.20  -0.33
   8   1    -0.01  -0.06   0.04    -0.01   0.13  -0.06     0.53  -0.07  -0.03
   9   1    -0.03  -0.02   0.08    -0.03   0.03  -0.15    -0.03  -0.06   0.29
  10   1     0.03   0.05   0.01     0.02  -0.10  -0.03    -0.04   0.02   0.05
  11   1     0.01  -0.01  -0.02     0.02   0.05   0.10    -0.05  -0.10  -0.12
  12   1     0.33   0.15  -0.59     0.10   0.08  -0.07    -0.01  -0.01  -0.01
  13   1     0.13   0.16   0.56     0.04   0.05   0.30    -0.04   0.03   0.06
                      4                      5                      6
                        a                      a                      a 
 Frequencies --   231.9841               289.2241               372.1634
 Red. masses --     7.0517                10.5102                10.2928
 Frc consts  --     0.0000                 0.0000                 0.0000
 IR Inten    --     0.3841                 8.9496                 1.4024
 Raman Activ --     0.0000                 0.0000                 0.0000
 Depolar     --     0.0000                 0.0000                 0.0000
 Atom AN      X      Y      Z        X      Y      Z        X      Y      Z
   1   6     0.32   0.06   0.02     0.20   0.07  -0.05    -0.15   0.38   0.04
   2   6     0.01   0.17   0.05    -0.09  -0.03   0.22     0.05   0.06   0.25
   3   6    -0.01   0.09  -0.02    -0.10  -0.15   0.22     0.12  -0.05   0.20
   4   8     0.26  -0.06  -0.15    -0.54  -0.14   0.04     0.07  -0.17  -0.00
   5   8    -0.30  -0.17   0.01     0.14  -0.04  -0.10     0.37  -0.03  -0.10
   6   7    -0.29  -0.03   0.09     0.29   0.23  -0.20    -0.37  -0.22  -0.25
   7   1     0.23  -0.31   0.20     0.12  -0.18   0.02    -0.06   0.17   0.00
   8   1    -0.24   0.15   0.04    -0.07   0.16   0.03    -0.04   0.23   0.05
   9   1     0.37   0.19  -0.24     0.21   0.11  -0.17    -0.12   0.04  -0.11
  10   1     0.03   0.04   0.01    -0.13   0.00   0.06    -0.03   0.04   0.08
  11   1    -0.06  -0.13  -0.02    -0.00   0.03  -0.12     0.05   0.02  -0.15
  12   1    -0.04  -0.05  -0.01     0.13   0.12  -0.14    -0.06  -0.23  -0.08
  13   1    -0.12   0.04   0.07     0.20  -0.01  -0.03    -0.18  -0.04  -0.14
                      7                      8                      9
                        a                      a                      a 
 Frequencies --   486.3449               591.5193               632.3635
 Red. masses --    11.2902                 6.4658                 9.3741
 Frc consts  --     0.0000                 0.0000                 0.0000
 IR Inten    --    25.4516                64.6700                49.3338
 Raman Activ --     0.0000                 0.0000                 0.0000
 Depolar     --     0.0000                 0.0000                 0.0000
 Atom AN      X      Y      Z        X      Y      Z        X      Y      Z
   1   6     0.01  -0.18  -0.05     0.11   0.18   0.10     0.01  -0.01  -0.03
   2   6    -0.32   0.13  -0.17     0.10   0.14  -0.05     0.15   0.19  -0.31
   3   6    -0.07  -0.18   0.04     0.06  -0.25  -0.33     0.26  -0.05   0.01
   4   8     0.20  -0.27   0.10    -0.28   0.05   0.07    -0.38   0.16   0.02
   5   8     0.43   0.10  -0.12     0.08  -0.26  -0.03     0.20  -0.27   0.28
   6   7    -0.29   0.33   0.17    -0.10   0.04   0.01    -0.14   0.10   0.05
   7   1     0.03  -0.16  -0.04     0.03   0.03   0.00     0.02   0.03   0.10
   8   1     0.02  -0.15  -0.05     0.05   0.05   0.03    -0.07  -0.15  -0.06
   9   1     0.11   0.04   0.11     0.05   0.07   0.04    -0.00   0.00   0.08
  10   1    -0.14   0.03  -0.05     0.09   0.09   0.00     0.02   0.03  -0.10
  11   1     0.04   0.24  -0.05     0.13   0.22   0.67     0.03  -0.41  -0.33
  12   1    -0.11   0.15   0.08    -0.03  -0.06   0.03    -0.06  -0.01   0.06
  13   1    -0.08   0.10   0.06    -0.09   0.04  -0.02    -0.13   0.11   0.04
                     10                     11                     12
                        a                      a                      a 
 Frequencies --   712.9734               810.9344               940.9509
 Red. masses --    10.1581                 9.1717                 7.3204
 Frc consts  --     0.0000                 0.0000                 0.0000
 IR Inten    --   113.7241                56.1861                87.4068
 Raman Activ --     0.0000                 0.0000                 0.0000
 Depolar     --     0.0000                 0.0000                 0.0000
 Atom AN      X      Y      Z        X      Y      Z        X      Y      Z
   1   6     0.08   0.15   0.11     0.16   0.21   0.05     0.10  -0.26  -0.17
   2   6    -0.02  -0.00   0.07     0.29   0.17  -0.35     0.34   0.04   0.09
   3   6    -0.22  -0.36  -0.60    -0.26  -0.07   0.22    -0.05  -0.08  -0.02
   4   8     0.07  -0.02   0.28    -0.08  -0.32   0.13    -0.03  -0.09   0.07
   5   8    -0.01   0.21   0.21    -0.16   0.14  -0.09    -0.09   0.07  -0.01
   6   7     0.03  -0.04  -0.03     0.15  -0.19  -0.04    -0.24   0.38   0.23
   7   1     0.01  -0.02  -0.08     0.06   0.21   0.27    -0.00   0.16   0.10
   8   1     0.09   0.13   0.06    -0.11  -0.15  -0.06    -0.09  -0.02  -0.03
   9   1     0.05   0.06  -0.00    -0.03   0.02   0.11    -0.18  -0.24  -0.22
  10   1     0.14   0.07   0.05     0.06  -0.05  -0.12     0.13   0.03   0.02
  11   1    -0.09  -0.07  -0.39    -0.12   0.27  -0.10    -0.05   0.09  -0.03
  12   1    -0.01  -0.03   0.02    -0.02  -0.06   0.09     0.22  -0.18  -0.30
  13   1     0.01  -0.02  -0.02    -0.10   0.11   0.12     0.01  -0.11  -0.31
                     13                     14                     15
                        a                      a                      a 
 Frequencies --   964.5774              1031.1097              1066.0543
 Red. masses --     3.2963                 4.8318                 6.7116
 Frc consts  --     0.0000                 0.0000                 0.0000
 IR Inten    --    97.8846                 1.0937                35.9414
 Raman Activ --     0.0000                 0.0000                 0.0000
 Depolar     --     0.0000                 0.0000                 0.0000
 Atom AN      X      Y      Z        X      Y      Z        X      Y      Z
   1   6     0.06  -0.33   0.01     0.38   0.13   0.11     0.01  -0.06  -0.34
   2   6     0.15   0.05   0.06    -0.20  -0.26  -0.04     0.01   0.17   0.52
   3   6    -0.04   0.01   0.04     0.00  -0.01  -0.11    -0.04  -0.06  -0.20
   4   8    -0.03  -0.03   0.01     0.05   0.07  -0.02     0.04   0.07   0.01
   5   8    -0.01  -0.02   0.00     0.06  -0.02   0.01     0.02   0.01   0.02
   6   7     0.02   0.07  -0.22    -0.17   0.03  -0.03     0.12  -0.01  -0.14
   7   1    -0.06   0.08  -0.10     0.07   0.39   0.33     0.05   0.06   0.20
   8   1     0.04   0.29   0.12    -0.15   0.02   0.02    -0.18  -0.34  -0.19
   9   1    -0.16  -0.25  -0.35    -0.18  -0.18  -0.10    -0.05  -0.03   0.11
  10   1     0.10   0.23   0.11    -0.21  -0.15  -0.05    -0.27  -0.18   0.05
  11   1    -0.02   0.05  -0.01     0.04  -0.08   0.04     0.03  -0.04   0.05
  12   1    -0.24   0.17   0.28    -0.15   0.34   0.06    -0.03  -0.15   0.10
  13   1    -0.17   0.30   0.32     0.20  -0.16  -0.01    -0.16   0.21   0.17
                     16                     17                     18
                        a                      a                      a 
 Frequencies --  1124.5317              1174.0498              1180.1258
 Red. masses --     9.6236                 8.3799                 3.7942
 Frc consts  --     0.0000                 0.0000                 0.0000
 IR Inten    --   257.9066                 6.4157                22.3113
 Raman Activ --     0.0000                 0.0000                 0.0000
 Depolar     --     0.0000                 0.0000                 0.0000
 Atom AN      X      Y      Z        X      Y      Z        X      Y      Z
   1   6     0.02  -0.05  -0.08    -0.05   0.13   0.13     0.08  -0.07   0.20
   2   6    -0.11   0.18   0.06     0.25  -0.54   0.01    -0.15   0.07  -0.21
   3   6    -0.31   0.19  -0.03    -0.11   0.09  -0.02    -0.01  -0.01  -0.07
   4   8     0.05   0.23  -0.13     0.03   0.09  -0.05     0.04   0.11  -0.05
   5   8     0.22  -0.50   0.22     0.02  -0.15   0.07     0.02  -0.08   0.05
   6   7     0.05  -0.12   0.02    -0.11   0.37  -0.13     0.22  -0.05   0.16
   7   1     0.00   0.05   0.03     0.01  -0.08  -0.03    -0.03   0.06  -0.04
   8   1    -0.03  -0.02  -0.02     0.08   0.02   0.04     0.04   0.20   0.12
   9   1    -0.03  -0.03  -0.02     0.08   0.10   0.09    -0.06  -0.10  -0.16
  10   1     0.20   0.04   0.02     0.02  -0.41  -0.11    -0.63   0.01  -0.06
  11   1    -0.18   0.46  -0.20    -0.08   0.17  -0.08    -0.04   0.10  -0.05
  12   1     0.02   0.05  -0.02    -0.03  -0.09   0.02     0.21  -0.35  -0.10
  13   1     0.12  -0.13  -0.04    -0.20   0.25   0.06    -0.22   0.14  -0.04
                     19                     20                     21
                        a                      a                      a 
 Frequencies --  1219.9012              1271.2245              1309.7684
 Red. masses --     7.1710                 4.0866                 7.1761
 Frc consts  --     0.0000                 0.0000                 0.0000
 IR Inten    --    87.7689                 1.5790                25.4668
 Raman Activ --     0.0000                 0.0000                 0.0000
 Depolar     --     0.0000                 0.0000                 0.0000
 Atom AN      X      Y      Z        X      Y      Z        X      Y      Z
   1   6    -0.07   0.01  -0.02     0.02   0.14  -0.16     0.16   0.05  -0.00
   2   6     0.17   0.01   0.07     0.02  -0.46  -0.05    -0.55  -0.10  -0.01
   3   6     0.56  -0.24  -0.01    -0.05   0.06   0.01     0.38  -0.11   0.07
   4   8    -0.06   0.09  -0.03     0.02   0.03  -0.02    -0.03   0.03  -0.02
   5   8    -0.29   0.02   0.04     0.01  -0.04   0.02    -0.12   0.04  -0.01
   6   7    -0.12  -0.04  -0.01     0.03   0.04   0.08     0.13   0.09  -0.03
   7   1    -0.00  -0.08  -0.05     0.05   0.04   0.15     0.03   0.07   0.07
   8   1     0.01  -0.04  -0.02    -0.05  -0.13  -0.09    -0.10  -0.03  -0.02
   9   1     0.03   0.03   0.03     0.03   0.07   0.14    -0.11  -0.10  -0.02
  10   1    -0.27   0.04   0.03    -0.10   0.72   0.30     0.48  -0.05   0.00
  11   1    -0.23   0.47  -0.20    -0.01   0.02  -0.02    -0.07   0.14  -0.06
  12   1    -0.10   0.20   0.05     0.04  -0.02  -0.02     0.09  -0.30  -0.01
  13   1     0.11  -0.10   0.01    -0.13   0.09  -0.02    -0.15   0.17   0.06
                     22                     23                     24
                        a                      a                      a 
 Frequencies --  1395.2581              1488.8742              1490.4322
 Red. masses --     3.0329                 1.6078                 1.5531
 Frc consts  --     0.0000                 0.0000                 0.0000
 IR Inten    --     2.4634                 3.8109                 7.4353
 Raman Activ --     0.0000                 0.0000                 0.0000
 Depolar     --     0.0000                 0.0000                 0.0000
 Atom AN      X      Y      Z        X      Y      Z        X      Y      Z
   1   6    -0.12  -0.32  -0.24    -0.21   0.03   0.07     0.04  -0.13   0.17
   2   6    -0.04   0.01   0.01    -0.07   0.00   0.01    -0.01  -0.04   0.03
   3   6     0.06  -0.04  -0.00     0.02  -0.02  -0.00     0.02   0.00  -0.00
   4   8    -0.00   0.01  -0.00     0.00   0.01  -0.00    -0.00  -0.00   0.00
   5   8    -0.02   0.02  -0.00    -0.01   0.00   0.00    -0.01   0.00   0.00
   6   7     0.00   0.01   0.00     0.01   0.00  -0.00     0.01  -0.01   0.00
   7   1    -0.03   0.37   0.36     0.04   0.12   0.35    -0.25   0.52  -0.40
   8   1     0.16   0.48   0.15     0.61  -0.32  -0.08    -0.32  -0.24  -0.07
   9   1     0.30   0.24   0.35     0.19   0.09  -0.53     0.42   0.27  -0.20
  10   1     0.02  -0.05  -0.02     0.02   0.00   0.01     0.02   0.02   0.02
  11   1    -0.01   0.01  -0.01    -0.00   0.00  -0.00    -0.00   0.01  -0.00
  12   1     0.01  -0.02  -0.01    -0.00  -0.02   0.01     0.01   0.03  -0.02
  13   1    -0.02   0.01  -0.01     0.01   0.00   0.01    -0.05   0.02  -0.03
                     25                     26                     27
                        a                      a                      a 
 Frequencies --  1558.7236              1789.0079              2881.1253
 Red. masses --     1.9705                13.2664                 1.7306
 Frc consts  --     0.0000                 0.0000                 0.0000
 IR Inten    --    50.8552               453.1526                30.1957
 Raman Activ --     0.0000                 0.0000                 0.0000
 Depolar     --     0.0000                 0.0000                 0.0000
 Atom AN      X      Y      Z        X      Y      Z        X      Y      Z
   1   6    -0.00   0.01  -0.01     0.00   0.01   0.00     0.00   0.01  -0.00
   2   6    -0.04   0.02   0.08     0.05   0.01  -0.02    -0.01  -0.08   0.24
   3   6     0.03   0.01  -0.02    -0.25  -0.66   0.37    -0.00  -0.01   0.01
   4   8    -0.01  -0.02   0.02     0.18   0.49  -0.27     0.00   0.00  -0.00
   5   8    -0.01   0.00  -0.00    -0.01   0.07  -0.03     0.00   0.00  -0.00
   6   7     0.13  -0.19   0.10    -0.01  -0.00   0.00     0.01  -0.01  -0.00
   7   1     0.02  -0.05   0.03     0.00  -0.00  -0.01    -0.01  -0.00  -0.00
   8   1     0.03   0.00   0.00    -0.01  -0.01  -0.00    -0.00  -0.01   0.04
   9   1    -0.03  -0.02  -0.00     0.00   0.00   0.00     0.01  -0.01  -0.00
  10   1     0.07  -0.09  -0.02     0.05   0.01   0.01     0.01   0.34  -0.90
  11   1    -0.00   0.00  -0.00     0.04  -0.09   0.04    -0.00  -0.00   0.00
  12   1     0.08   0.59  -0.26    -0.00   0.02  -0.00     0.00  -0.00   0.01
  13   1    -0.56   0.20  -0.37    -0.03   0.02  -0.01    -0.00  -0.00   0.01
                     28                     29                     30
                        a                      a                      a 
 Frequencies --  3023.2677              3037.8669              3048.1767
 Red. masses --     1.7598                 1.7324                 1.6659
 Frc consts  --     0.0000                 0.0000                 0.0000
 IR Inten    --    26.2572                20.7354                15.6256
 Raman Activ --     0.0000                 0.0000                 0.0000
 Depolar     --     0.0000                 0.0000                 0.0000
 Atom AN      X      Y      Z        X      Y      Z        X      Y      Z
   1   6    -0.03  -0.09   0.24    -0.25  -0.03   0.04    -0.13   0.21  -0.03
   2   6     0.00  -0.00   0.02    -0.01  -0.00   0.00    -0.00   0.01  -0.00
   3   6    -0.00  -0.00   0.00     0.00   0.00  -0.00    -0.00   0.00  -0.00
   4   8     0.00   0.00  -0.00    -0.00  -0.00   0.00    -0.00  -0.00   0.00
   5   8    -0.00  -0.00  -0.00     0.00   0.00  -0.00    -0.00  -0.00   0.00
   6   7    -0.00  -0.00  -0.00     0.00   0.00   0.00     0.00  -0.00   0.00
   7   1     0.07   0.00   0.01     0.90   0.24  -0.23    -0.11   0.00   0.02
   8   1     0.03   0.31  -0.91    -0.04  -0.03   0.08    -0.02   0.03  -0.02
   9   1    -0.01  -0.01   0.03     0.03  -0.09   0.02     0.58  -0.76   0.10
  10   1     0.00   0.02  -0.04     0.00   0.00  -0.00     0.00  -0.00   0.01
  11   1     0.00   0.00   0.00    -0.00  -0.00   0.00     0.00   0.00  -0.00
  12   1     0.00   0.00   0.00    -0.00  -0.00  -0.00    -0.00  -0.00  -0.00
  13   1    -0.00   0.00   0.00    -0.00  -0.00   0.00     0.00   0.00  -0.00
                     31                     32                     33
                        a                      a                      a 
 Frequencies --  3369.4394              3423.6444              3440.4641
 Red. masses --     1.6480                 1.9506                 1.8475
 Frc consts  --     0.0000                 0.0000                 0.0000
 IR Inten    --    12.8925                 1.8938                32.7984
 Raman Activ --     0.0000                 0.0000                 0.0000
 Depolar     --     0.0000                 0.0000                 0.0000
 Atom AN      X      Y      Z        X      Y      Z        X      Y      Z
   1   6    -0.00   0.00   0.00    -0.00   0.00   0.00     0.00  -0.00  -0.00
   2   6     0.00  -0.01   0.01    -0.00  -0.00  -0.00     0.00   0.00  -0.00
   3   6    -0.00   0.00  -0.00     0.00  -0.00  -0.00    -0.01   0.01  -0.00
   4   8     0.00  -0.00  -0.00     0.00   0.00  -0.00    -0.00  -0.00   0.00
   5   8    -0.00  -0.00   0.00     0.00  -0.00   0.00    -0.22  -0.06   0.06
   6   7    -0.07  -0.18   0.12    -0.23  -0.08  -0.11     0.00   0.00  -0.00
   7   1     0.00   0.00  -0.00     0.00   0.00   0.00     0.00   0.00  -0.00
   8   1    -0.00  -0.00  -0.00     0.00   0.00   0.00    -0.00  -0.00   0.00
   9   1    -0.00   0.00   0.00     0.00  -0.00   0.00    -0.00   0.00   0.00
  10   1    -0.00  -0.00  -0.01    -0.00  -0.00   0.00     0.00   0.00  -0.00
  11   1     0.01   0.00  -0.00     0.00   0.00  -0.00     0.91   0.23  -0.25
  12   1    -0.23  -0.06  -0.12     0.76   0.14   0.53     0.00   0.00   0.00
  13   1     0.50   0.72  -0.33     0.11   0.18  -0.11    -0.00  -0.01   0.00
