      -----------------------------------------------------------      
     |                   =====================                   |     
     |                           x T B                           |     
     |                   =====================                   |     
     |                         S. Grimme                         |     
     |          Mulliken Center for Theoretical Chemistry        |     
     |                    University of Bonn                     |     
      -----------------------------------------------------------      

   * xtb version 6.6.0 (8843059) compiled by 'stahn@majestix' on 2023-02-09

   xtb is free software: you can redistribute it and/or modify it under
   the terms of the GNU Lesser General Public License as published by
   the Free Software Foundation, either version 3 of the License, or
   (at your option) any later version.
   
   xtb is distributed in the hope that it will be useful,
   but WITHOUT ANY WARRANTY; without even the implied warranty of
   MERCHANTABILITY or FITNESS FOR A PARTICULAR PURPOSE.  See the
   GNU Lesser General Public License for more details.
   
   Cite this work as:
   * C. Bannwarth, E. Caldeweyher, S. Ehlert, A. Hansen, P. Pracht,
     J. Seibert, S. Spicher, S. Grimme, WIREs Comput. Mol. Sci., 2020, 11,
     e01493. DOI: 10.1002/wcms.1493
   
   for GFN2-xTB:
   * C. Bannwarth, S. Ehlert and S. Grimme., J. Chem. Theory Comput., 2019,
     15, 1652-1671. DOI: 10.1021/acs.jctc.8b01176
   for GFN1-xTB:
   * S. Grimme, C. Bannwarth, P. Shushkov, J. Chem. Theory Comput., 2017,
     13, 1989-2009. DOI: 10.1021/acs.jctc.7b00118
   for GFN0-xTB:
   * P. Pracht, E. Caldeweyher, S. Ehlert, S. Grimme, ChemRxiv, 2019, preprint.
     DOI: 10.26434/chemrxiv.8326202.v1
   for GFN-FF:
   * S. Spicher and S. Grimme, Angew. Chem. Int. Ed., 2020, 59, 15665-15673.
     DOI: 10.1002/anie.202004239
   
   for ALPB and GBSA implicit solvation:
   * S. Ehlert, M. Stahn, S. Spicher, S. Grimme, J. Chem. Theory Comput.,
     2021, 17, 4250-4261. DOI: 10.1021/acs.jctc.1c00471
   
   for DFT-D4:
   * E. Caldeweyher, C. Bannwarth and S. Grimme, J. Chem. Phys., 2017,
     147, 034112. DOI: 10.1063/1.4993215
   * E. Caldeweyher, S. Ehlert, A. Hansen, H. Neugebauer, S. Spicher,
     C. Bannwarth and S. Grimme, J. Chem. Phys., 2019, 150, 154122.
     DOI: 10.1063/1.5090222
   * E. Caldeweyher, J.-M. Mewes, S. Ehlert and S. Grimme, Phys. Chem. Chem. Phys.
     2020, 22, 8499-8512. DOI: 10.1039/D0CP00502A
   
   for sTDA-xTB:
   * S. Grimme and C. Bannwarth, J. Chem. Phys., 2016, 145, 054103.
     DOI: 10.1063/1.4959605
   
   in the mass-spec context:
   * V. Asgeirsson, C. Bauer and S. Grimme, Chem. Sci., 2017, 8, 4879.
     DOI: 10.1039/c7sc00601b
   * J. Koopman and S. Grimme, ACS Omega 2019, 4, 12, 15120-15133.
     DOI: 10.1021/acsomega.9b02011
   
   for metadynamics refer to:
   * S. Grimme, J. Chem. Theory Comput., 2019, 155, 2847-2862
     DOI: 10.1021/acs.jctc.9b00143
   
   for SPH calculations refer to:
   * S. Spicher and S. Grimme, J. Chem. Theory Comput., 2021, 17, 1701-1714
     DOI: 10.1021/acs.jctc.0c01306
   
   with help from (in alphabetical order)
   P. Atkinson, C. Bannwarth, F. Bohle, G. Brandenburg, E. Caldeweyher
   M. Checinski, S. Dohm, S. Ehlert, S. Ehrlich, I. Gerasimov, C. Hölzer
   A. Katbashev, J. Koopman, C. Lavigne, S. Lehtola, F. März, M. Müller,
   F. Musil, H. Neugebauer, J. Pisarek, C. Plett, P. Pracht, F. Pultar,
   J. Seibert, P. Shushkov, S. Spicher, M. Stahn, M. Steiner, T. Strunk,
   J. Stückrath, T. Rose, and J. Unsleber
   
 * started run on 2025/07/30 at 12:34:40.729     

           -------------------------------------------------
          |                Calculation Setup                |
           -------------------------------------------------

          program call               : xtb --gfn2 in.xyz --ohess vtight
          coordinate file            : in.xyz
          omp threads                :                     8

   ID    Z sym.   atoms
    1    6 C      1-3
    2    8 O      4, 5
    3    7 N      6
    4    1 H      7-13

           -------------------------------------------------
          |                 G F N 2 - x T B                 |
           -------------------------------------------------

        Reference                      10.1021/acs.jctc.8b01176
      * Hamiltonian:
        H0-scaling (s, p, d)           1.850000    2.230000    2.230000
        zeta-weighting                 0.500000
      * Dispersion:
        s8                             2.700000
        a1                             0.520000
        a2                             5.000000
        s9                             5.000000
      * Repulsion:
        kExp                           1.500000    1.000000
        rExp                           1.000000
      * Coulomb:
        alpha                          2.000000
        third order                    shell-resolved
        anisotropic                    true
        a3                             3.000000
        a5                             4.000000
        cn-shift                       1.200000
        cn-exp                         4.000000
        max-rad                        5.000000


          ...................................................
          :                      SETUP                      :
          :.................................................:
          :  # basis functions                  31          :
          :  # atomic orbitals                  31          :
          :  # shells                           19          :
          :  # electrons                        36          :
          :  max. iterations                   250          :
          :  Hamiltonian                  GFN2-xTB          :
          :  restarted?                      false          :
          :  GBSA solvation                  false          :
          :  PC potential                    false          :
          :  electronic temp.          300.0000000     K    :
          :  accuracy                    1.0000000          :
          :  -> integral cutoff          0.2500000E+02      :
          :  -> integral neglect         0.1000000E-07      :
          :  -> SCF convergence          0.1000000E-05 Eh   :
          :  -> wf. convergence          0.1000000E-03 e    :
          :  Broyden damping             0.4000000          :
          ...................................................

 iter      E             dE          RMSdq      gap      omega  full diag
   1    -21.2124996 -0.212125E+02  0.421E+00    4.28       0.0  T
   2    -21.2472414 -0.347418E-01  0.216E+00    3.74       1.0  T
   3    -21.2489369 -0.169551E-02  0.118E+00    3.94       1.0  T
   4    -21.2513240 -0.238713E-02  0.171E-01    3.52       1.0  T
   5    -21.2514333 -0.109218E-03  0.637E-02    3.51       1.0  T
   6    -21.2514394 -0.616319E-05  0.249E-02    3.52       1.1  T
   7    -21.2514411 -0.172074E-05  0.708E-03    3.52       3.9  T
   8    -21.2514413 -0.106027E-06  0.300E-03    3.52       9.2  T
   9    -21.2514413 -0.516444E-07  0.702E-04    3.52      39.5  T
  10    -21.2514413 -0.661711E-09  0.375E-04    3.52      74.1  T

   *** convergence criteria satisfied after 10 iterations ***

         #    Occupation            Energy/Eh            Energy/eV
      -------------------------------------------------------------
         1        2.0000           -0.7529838             -20.4897
       ...           ...                  ...                  ...
        12        2.0000           -0.5103976             -13.8886
        13        2.0000           -0.4846318             -13.1875
        14        2.0000           -0.4827914             -13.1374
        15        2.0000           -0.4715162             -12.8306
        16        2.0000           -0.4626353             -12.5889
        17        2.0000           -0.4274211             -11.6307
        18        2.0000           -0.3713017             -10.1036 (HOMO)
        19                         -0.2419514              -6.5838 (LUMO)
        20                          0.0312734               0.8510
        21                          0.0573758               1.5613
        22                          0.0899257               2.4470
        23                          0.1267582               3.4493
       ...                                ...                  ...
        31                          0.6345615              17.2673
      -------------------------------------------------------------
                  HL-Gap            0.1293503 Eh            3.5198 eV
             Fermi-level           -0.3066265 Eh           -8.3437 eV

 SCC (total)                   0 d,  0 h,  0 min,  0.006 sec
 SCC setup                      ...        0 min,  0.000 sec (  2.801%)
 Dispersion                     ...        0 min,  0.000 sec (  2.817%)
 classical contributions        ...        0 min,  0.000 sec (  1.320%)
 integral evaluation            ...        0 min,  0.001 sec (  9.690%)
 iterations                     ...        0 min,  0.004 sec ( 67.535%)
 molecular gradient             ...        0 min,  0.001 sec ( 14.179%)
 printout                       ...        0 min,  0.000 sec (  1.320%)

         :::::::::::::::::::::::::::::::::::::::::::::::::::::
         ::                     SUMMARY                     ::
         :::::::::::::::::::::::::::::::::::::::::::::::::::::
         :: total energy             -21.042307765396 Eh    ::
         :: gradient norm              0.000150680914 Eh/a0 ::
         :: HOMO-LUMO gap              3.519801491358 eV    ::
         ::.................................................::
         :: SCC energy               -21.251441303094 Eh    ::
         :: -> isotropic ES            0.058780533552 Eh    ::
         :: -> anisotropic ES          0.002242761060 Eh    ::
         :: -> anisotropic XC          0.006577408762 Eh    ::
         :: -> dispersion             -0.006992652150 Eh    ::
         :: repulsion energy           0.209123742292 Eh    ::
         :: add. restraining           0.000000000000 Eh    ::
         :: total charge               0.000000000000 e     ::
         :::::::::::::::::::::::::::::::::::::::::::::::::::::

      ----------------------------------------------------------- 
     |                   =====================                   |
     |                        A N C O P T                        |
     |                   =====================                   |
     |               Approximate Normal Coordinate               |
     |                Rational Function Optimizer                |
      ----------------------------------------------------------- 

          ...................................................
          :                      SETUP                      :
          :.................................................:
          :   optimization level         verytight          :
          :   max. optcycles                   260          :
          :   ANC micro-cycles                  20          :
          :   degrees of freedom                33          :
          :.................................................:
          :   RF solver                   davidson          :
          :   write xtbopt.log                true          :
          :   linear?                        false          :
          :   energy convergence         0.1000000E-06 Eh   :
          :   grad. convergence          0.2000000E-03 Eh/α :
          :   maxmium RF displ.          1.0000000          :
          :   Hlow (freq-cutoff)         0.1000000E-01      :
          :   Hmax (freq-cutoff)         5.0000000          :
          :   S6 in model hess.         20.0000000          :
          ...................................................

generating ANC from model Hessian ...
Using Lindh-Hessian (1995)
 Shifting diagonal of input Hessian by   3.651301128758814E-003
 Lowest  eigenvalues of input Hessian
    0.000000    0.000000    0.000000    0.000000    0.000000    0.000000
    0.010000    0.012734    0.014745    0.017298    0.022179    0.023735
    0.050376    0.057858    0.062372    0.065667    0.077690    0.097400
 Highest eigenvalues
    1.174385    1.210793    1.345574    1.460966    1.775046    2.363163
 

........................................................................
.............................. CYCLE    1 ..............................
........................................................................

 iter      E             dE          RMSdq      gap      omega  full diag
   1    -21.2514413 -0.212514E+02  0.100E-04    3.52       0.0  T
   2    -21.2514413 -0.346105E-10  0.488E-05    3.52     568.0  T
   3    -21.2514413 -0.656897E-11  0.309E-05    3.52     897.9  T
     SCC iter.                  ...        0 min,  0.001 sec
     gradient                   ...        0 min,  0.001 sec
 * total energy  :   -21.0423078 Eh     change       -0.7698695E-09 Eh
   gradient norm :     0.0001477 Eh/α   predicted     0.0000000E+00 (-100.00%)
   displ. norm   :     0.0026292 α      lambda       -0.9105766E-07
   maximum displ.:     0.0016122 α      in ANC's #6, #2, #1, ...

   *** GEOMETRY OPTIMIZATION CONVERGED AFTER 1 ITERATIONS ***

------------------------------------------------------------------------
 total energy gain   :        -0.0000000 Eh       -0.0000 kcal/mol
 total RMSD          :         0.0000000 a0        0.0000 Å
 total power (kW/mol):        -0.0000020 (step)   -0.0003 (real)
------------------------------------------------------------------------

 ANCopt (total)                0 d,  0 h,  0 min,  0.006 sec
 optimizer setup                ...        0 min,  0.000 sec (  1.503%)
 model hessian                  ...        0 min,  0.004 sec ( 56.065%)
 ANC generation                 ...        0 min,  0.000 sec (  3.666%)
 coordinate transformation      ...        0 min,  0.000 sec (  0.111%)
 single point calculation       ...        0 min,  0.002 sec ( 33.886%)
 optimization log               ...        0 min,  0.000 sec (  1.263%)
 hessian update                 ...        0 min,  0.000 sec (  0.031%)
 rational function              ...        0 min,  0.000 sec (  2.174%)

================
 final structure:
================
13
 xtb: 6.6.0 (8843059)
C           -1.19456500000000       -1.31027000000000       -0.55207700000000
C           -0.72506200000000       -0.19316400000000        0.39047700000000
C            0.71055500000000        0.15002500000000        0.03272700000000
O            1.05529900000000        1.15867500000000       -0.52372400000000
O            1.56670000000000       -0.80957400000000        0.39167100000000
N           -1.55721300000000        0.99742100000000        0.33965500000000
H           -2.21486200000000       -1.59083700000000       -0.30151700000000
H           -1.16504400000000       -0.96820900000000       -1.58558700000000
H           -0.55515900000000       -2.18296700000000       -0.45012500000000
H           -0.72298900000000       -0.58017900000000        1.41958200000000
H            2.47208500000000       -0.56651600000000        0.13985900000000
H           -2.36537000000000        0.84942200000000       -0.25337500000000
H           -1.02146500000000        1.76495700000000       -0.05702000000000
 
 Bond Distances (Angstroems)
 ---------------------------
C1-C2=1.5352         C1-H7=1.0874         C1-H8=1.0890         C1-H9=1.0867         C2-C1=1.5352         C2-C3=1.5188         
C2-N6=1.4535         C2-H10=1.0995        C3-C2=1.5188         C3-O4=1.2024         C3-O5=1.3352         O4-C3=1.2024         
O5-C3=1.3352         O5-H11=0.9707        N6-C2=1.4535         N6-H12=1.0133        N6-H13=1.0166        H7-C1=1.0874         
H8-C1=1.0890         H9-C1=1.0867         H10-C2=1.0995        H11-O5=0.9707        H12-N6=1.0133        H13-N6=1.0166        
 C  H  Rav=1.0907 sigma=0.0052  Rmin=1.0867  Rmax=1.0995     4
 C  C  Rav=1.5270 sigma=0.0082  Rmin=1.5188  Rmax=1.5352     2
 N  H  Rav=1.0149 sigma=0.0017  Rmin=1.0133  Rmax=1.0166     2
 N  C  Rav=1.4535 sigma=0.0000  Rmin=1.4535  Rmax=1.4535     1
 O  H  Rav=0.9707 sigma=0.0000  Rmin=0.9707  Rmax=0.9707     1
 O  C  Rav=1.2688 sigma=0.0664  Rmin=1.2024  Rmax=1.3352     2
 
 selected bond angles (degree)
 --------------------
H7-C1-C2=109.46                H8-C1-C2=110.23                H8-C1-H7=108.97                H9-C1-C2=110.29                
H9-C1-H7=108.86                H9-C1-H8=108.99                C3-C2-C1=107.99                N6-C2-C1=113.55                
N6-C2-C3=110.36                H10-C2-C1=108.61               H10-C2-C3=107.35               H10-C2-N6=108.79               
O4-C3-C2=124.72                O5-C3-C2=112.36                O5-C3-O4=122.92                H11-O5-C3=110.39               
H12-N6-C2=110.94               H13-N6-C2=109.29               H13-N6-H12=107.59              
 
 selected dihedral angles (degree)
 ---------------------------------
C3-C2-C1-H7=178.73            C3-C2-C1-H8=298.58            C3-C2-C1-H9= 58.98            N6-C2-C1-H7=301.44            
N6-C2-C1-H8= 61.30            N6-C2-C1-H9=181.69            H10-C2-C1-H7= 62.61           H10-C2-C1-H8=182.46           
H10-C2-C1-H9=302.86           O4-C3-C2-C1=107.73            O4-C3-C2-N6=343.08            O4-C3-C2-H10=224.66           
O5-C3-C2-C1=288.51            O5-C3-C2-N6=163.87            O5-C3-C2-H10= 45.45           H11-O5-C3-C2=179.26           
H11-O5-C3-O4=  0.04           H12-N6-C2-C1=  5.41           H12-N6-C2-C3=126.82           H12-N6-C2-H10=244.35          
H13-N6-C2-C1=246.93           H13-N6-C2-C3=  8.34           H13-N6-C2-H10=125.87          
           -------------------------------------------------
          |                Final Singlepoint                |
           -------------------------------------------------

          ...................................................
          :                      SETUP                      :
          :.................................................:
          :  # basis functions                  31          :
          :  # atomic orbitals                  31          :
          :  # shells                           19          :
          :  # electrons                        36          :
          :  max. iterations                   250          :
          :  Hamiltonian                  GFN2-xTB          :
          :  restarted?                      false          :
          :  GBSA solvation                  false          :
          :  PC potential                    false          :
          :  electronic temp.          300.0000000     K    :
          :  accuracy                    1.0000000          :
          :  -> integral cutoff          0.2500000E+02      :
          :  -> integral neglect         0.1000000E-07      :
          :  -> SCF convergence          0.1000000E-05 Eh   :
          :  -> wf. convergence          0.1000000E-03 e    :
          :  Broyden damping             0.4000000          :
          ...................................................

 iter      E             dE          RMSdq      gap      omega  full diag
   1    -21.2514413 -0.212514E+02  0.707E-06    3.52       0.0  T
   2    -21.2514413 -0.675016E-13  0.424E-06    3.52    6539.7  T
   3    -21.2514413  0.000000E+00  0.183E-06    3.52   15185.3  T

   *** convergence criteria satisfied after 3 iterations ***

         #    Occupation            Energy/Eh            Energy/eV
      -------------------------------------------------------------
         1        2.0000           -0.7529846             -20.4898
       ...           ...                  ...                  ...
        12        2.0000           -0.5103984             -13.8886
        13        2.0000           -0.4846297             -13.1874
        14        2.0000           -0.4827915             -13.1374
        15        2.0000           -0.4715166             -12.8306
        16        2.0000           -0.4626358             -12.5890
        17        2.0000           -0.4274193             -11.6307
        18        2.0000           -0.3713022             -10.1036 (HOMO)
        19                         -0.2419526              -6.5839 (LUMO)
        20                          0.0312732               0.8510
        21                          0.0573753               1.5613
        22                          0.0899244               2.4470
        23                          0.1267566               3.4492
       ...                                ...                  ...
        31                          0.6345606              17.2673
      -------------------------------------------------------------
                  HL-Gap            0.1293495 Eh            3.5198 eV
             Fermi-level           -0.3066274 Eh           -8.3438 eV

 SCC (total)                   0 d,  0 h,  0 min,  0.007 sec
 SCC setup                      ...        0 min,  0.000 sec (  0.835%)
 Dispersion                     ...        0 min,  0.000 sec (  0.505%)
 classical contributions        ...        0 min,  0.000 sec (  0.105%)
 integral evaluation            ...        0 min,  0.002 sec ( 36.807%)
 iterations                     ...        0 min,  0.003 sec ( 47.433%)
 molecular gradient             ...        0 min,  0.001 sec ( 12.914%)
 printout                       ...        0 min,  0.000 sec (  1.115%)

         :::::::::::::::::::::::::::::::::::::::::::::::::::::
         ::                     SUMMARY                     ::
         :::::::::::::::::::::::::::::::::::::::::::::::::::::
         :: total energy             -21.042307766167 Eh    ::
         :: gradient norm              0.000147671223 Eh/a0 ::
         :: HOMO-LUMO gap              3.519780390752 eV    ::
         ::.................................................::
         :: SCC energy               -21.251441303866 Eh    ::
         :: -> isotropic ES            0.058773144934 Eh    ::
         :: -> anisotropic ES          0.002242814304 Eh    ::
         :: -> anisotropic XC          0.006577272248 Eh    ::
         :: -> dispersion             -0.006992649748 Eh    ::
         :: repulsion energy           0.209123742292 Eh    ::
         :: add. restraining           0.000000000000 Eh    ::
         :: total charge              -0.000000000000 e     ::
         :::::::::::::::::::::::::::::::::::::::::::::::::::::

           ------------------------------------------------- 
          |                Numerical Hessian                |
           ------------------------------------------------- 
step length          :   0.00500
SCC accuracy         :   0.30000
Hessian scale factor :   1.00000
frozen atoms in %    :   0.00000    0
RMS gradient         :   0.00015
estimated CPU  time      0.03 min
estimated wall time      0.00 min

writing file <hessian>.

 projected vibrational frequencies (cm⁻¹)
eigval :       -0.00    -0.00     0.00     0.00     0.00     0.00
eigval :     -152.96    80.64   216.81   231.98   289.22   372.16
eigval :      486.34   591.52   632.36   712.97   810.93   940.95
eigval :      964.58  1031.11  1066.05  1124.53  1174.05  1180.13
eigval :     1219.90  1271.22  1309.77  1395.26  1488.87  1490.43
eigval :     1558.72  1789.01  2881.13  3023.27  3037.87  3048.18
eigval :     3369.44  3423.64  3440.46
           -------------------------------------------------
          |                Property Printout                |
           -------------------------------------------------

    * Orbital Energies and Occupations

         #    Occupation            Energy/Eh            Energy/eV
      -------------------------------------------------------------
         1        2.0000           -0.7529847             -20.4898
       ...           ...                  ...                  ...
         6        2.0000           -0.5971006             -16.2479
         7        2.0000           -0.5862344             -15.9523
         8        2.0000           -0.5829837             -15.8638
         9        2.0000           -0.5647050             -15.3664
        10        2.0000           -0.5207275             -14.1697
        11        2.0000           -0.5133527             -13.9690
        12        2.0000           -0.5103984             -13.8886
        13        2.0000           -0.4846297             -13.1874
        14        2.0000           -0.4827915             -13.1374
        15        2.0000           -0.4715166             -12.8306
        16        2.0000           -0.4626358             -12.5890
        17        2.0000           -0.4274193             -11.6307
        18        2.0000           -0.3713022             -10.1036 (HOMO)
        19                         -0.2419526              -6.5839 (LUMO)
        20                          0.0312732               0.8510
        21                          0.0573753               1.5613
        22                          0.0899244               2.4470
        23                          0.1267566               3.4492
        24                          0.1356026               3.6899
        25                          0.1652634               4.4970
        26                          0.1805821               4.9139
        27                          0.2240502               6.0967
        28                          0.2366958               6.4408
        29                          0.2524586               6.8697
       ...                                ...                  ...
        31                          0.6345605              17.2673
      -------------------------------------------------------------
                  HL-Gap            0.1293495 Eh            3.5198 eV
             Fermi-level           -0.3066274 Eh           -8.3438 eV

     #   Z          covCN         q      C6AA      α(0)
     1   6 C        3.756    -0.111    22.681     6.790
     2   6 C        3.782     0.033    20.043     6.378
     3   6 C        2.695     0.354    20.994     7.499
     4   8 O        0.856    -0.409    21.853     6.268
     5   8 O        1.659    -0.376    20.385     6.095
     6   7 N        2.632    -0.349    28.995     7.997
     7   1 H        0.925     0.054     2.267     2.354
     8   1 H        0.925     0.045     2.388     2.417
     9   1 H        0.925     0.053     2.282     2.362
    10   1 H        0.923     0.062     2.171     2.304
    11   1 H        0.804     0.333     0.630     1.247
    12   1 H        0.860     0.149     1.405     1.857
    13   1 H        0.860     0.162     1.325     1.803

 Mol. C6AA /au·bohr⁶  :       1403.020667
 Mol. C8AA /au·bohr⁸  :      29697.822951
 Mol. α(0) /au        :         55.371312


Wiberg/Mayer (AO) data.
largest (>0.10) Wiberg bond orders for each atom

 ---------------------------------------------------------------------------
     #   Z sym  total        # sym  WBO       # sym  WBO       # sym  WBO
 ---------------------------------------------------------------------------
     1   6 C    3.993 --     8 H    0.987     9 H    0.984     7 H    0.982
                             2 C    0.979
     2   6 C    3.989 --     6 N    1.025     1 C    0.979     3 C    0.954
                            10 H    0.945
     3   6 C    3.907 --     4 O    1.762     5 O    1.138     2 C    0.954
     4   8 O    2.047 --     3 C    1.762     5 O    0.170
     5   8 O    2.201 --     3 C    1.138    11 H    0.864     4 O    0.170
     6   7 N    3.001 --     2 C    1.025    12 H    0.962    13 H    0.951
     7   1 H    0.997 --     1 C    0.982
     8   1 H    0.998 --     1 C    0.987
     9   1 H    0.997 --     1 C    0.984
    10   1 H    0.996 --     2 C    0.945
    11   1 H    0.889 --     5 O    0.864
    12   1 H    0.978 --     6 N    0.962
    13   1 H    0.974 --     6 N    0.951
 ---------------------------------------------------------------------------

Topologies differ in total number of bonds
Writing topology from bond orders to xtbtopo.mol

molecular dipole:
                 x           y           z       tot (Debye)
 q only:       -0.110      -0.724       0.021
   full:        0.107      -0.825      -0.308       2.255
molecular quadrupole (traceless):
                xx          xy          yy          xz          yz          zz
 q only:        4.599      -1.809      -2.794       2.075       1.008      -1.805
  q+dip:        5.992      -0.940      -4.533       3.578       0.305      -1.459
   full:        5.834      -1.137      -4.295       3.926       0.801      -1.539

           -------------------------------------------------
          |                Geometry Summary                 |
           -------------------------------------------------

      molecular mass/u    :       89.0933060
   center of mass at/Å    :        0.0000012       0.0000025      -0.0000001
  moments of inertia/u·Å² :        0.9896764E+02   0.1594845E+03   0.2206536E+03
rotational constants/cm⁻¹ :        0.1703348E+00   0.1057008E+00   0.7639864E-01

 * 11 selected distances

     #   Z          #   Z                                           value/Å
     1   6 C        2   6 C                                       1.5351767 (max)
     3   6 C        4   8 O                                       1.2024397
     3   6 C        5   8 O                                       1.3351613
     2   6 C        6   7 N                                       1.4534618
     1   6 C        7   1 H                                       1.0874302
     1   6 C        8   1 H                                       1.0890456
     1   6 C        9   1 H                                       1.0866621
     2   6 C       10   1 H                                       1.0994736
     5   8 O       11   1 H                                       0.9706743 (min)
     6   7 N       12   1 H                                       1.0132651
     6   7 N       13   1 H                                       1.0166065

 * 6 distinct bonds (by element types)

   Z      Z             #   av. dist./Å        max./Å        min./Å
   1 H    6 C           4     1.0906529     1.0994736     1.0866621
   6 C    6 C           1     1.5351767     1.5351767     1.5351767
   1 H    7 N           2     1.0149358     1.0166065     1.0132651
   6 C    7 N           1     1.4534618     1.4534618     1.4534618
   1 H    8 O           1     0.9706743     0.9706743     0.9706743
   6 C    8 O           2     1.2688005     1.3351613     1.2024397

           -------------------------------------------------
          |               Frequency Printout                |
           -------------------------------------------------
 projected vibrational frequencies (cm⁻¹)
eigval :       -0.00    -0.00     0.00     0.00     0.00     0.00
eigval :     -152.96    80.64   216.81   231.98   289.22   372.16
eigval :      486.34   591.52   632.36   712.97   810.93   940.95
eigval :      964.58  1031.11  1066.05  1124.53  1174.05  1180.13
eigval :     1219.90  1271.22  1309.77  1395.26  1488.87  1490.43
eigval :     1558.72  1789.01  2881.13  3023.27  3037.87  3048.18
eigval :     3369.44  3423.64  3440.46
 reduced masses (amu)
   1: 13.55   2: 12.30   3: 13.60   4: 12.63   5: 12.43   6: 10.83   7:  2.90   8: 12.27
   9:  6.32  10:  7.05  11: 10.51  12: 10.29  13: 11.29  14:  6.47  15:  9.37  16: 10.16
  17:  9.17  18:  7.32  19:  3.30  20:  4.83  21:  6.71  22:  9.62  23:  8.38  24:  3.79
  25:  7.17  26:  4.09  27:  7.18  28:  3.03  29:  1.61  30:  1.55  31:  1.97  32: 13.27
  33:  1.73  34:  1.76  35:  1.73  36:  1.67  37:  1.65  38:  1.95  39:  1.85
 IR intensities (km·mol⁻¹)
   1:  0.09   2:  0.63   3:  0.43   4:  0.01   5:  0.85   6:  1.15   7: 31.81   8:  6.73
   9:  0.43  10:  0.38  11:  8.95  12:  1.40  13: 25.45  14: 64.67  15: 49.33  16:113.72
  17: 56.19  18: 87.41  19: 97.88  20:  1.09  21: 35.94  22:257.91  23:  6.42  24: 22.31
  25: 87.77  26:  1.58  27: 25.47  28:  2.46  29:  3.81  30:  7.44  31: 50.86  32:453.15
  33: 30.20  34: 26.26  35: 20.74  36: 15.63  37: 12.89  38:  1.89  39: 32.80
 Raman intensities (amu)
   1:  0.00   2:  0.00   3:  0.00   4:  0.00   5:  0.00   6:  0.00   7:  0.00   8:  0.00
   9:  0.00  10:  0.00  11:  0.00  12:  0.00  13:  0.00  14:  0.00  15:  0.00  16:  0.00
  17:  0.00  18:  0.00  19:  0.00  20:  0.00  21:  0.00  22:  0.00  23:  0.00  24:  0.00
  25:  0.00  26:  0.00  27:  0.00  28:  0.00  29:  0.00  30:  0.00  31:  0.00  32:  0.00
  33:  0.00  34:  0.00  35:  0.00  36:  0.00  37:  0.00  38:  0.00  39:  0.00
 output can be read by thermo (or use thermo option).
 writing <g98.out> molden fake output.
 recommended (thermochemical) frequency scaling factor: 1.0
           -------------------------------------------------
          |             Thermodynamic Functions             |
           -------------------------------------------------

Molecule has no symmetry elements
It seems to be the C1 point group
c1  symmetry found (for desy threshold:  0.10E+00) used in thermo

          ...................................................
          :                      SETUP                      :
          :.................................................:
          :  # frequencies                          32      :
          :  # imaginary freq.                       1      :
          :  linear?                             false      :
          :  only rotor calc.                    false      :
          :  symmetry                               c1      :
          :  rotational number                       1      :
          :  scaling factor                  1.0000000      :
          :  rotor cutoff                   50.0000000 cm⁻¹ :
          :  imag. cutoff                  -20.0000000 cm⁻¹ :
          :.................................................:

    mode    ω/cm⁻¹     T·S(HO)/kcal·mol⁻¹    T·S(FR)/kcal·mol⁻¹   T·S(vib)
   ------------------------------------------------------------------------
       1     80.64    -1.15542 ( 87.12%)    -0.91458 ( 12.88%)    -1.12441
       2    216.81    -0.59199 ( 99.72%)    -0.62182 (  0.28%)    -0.59207
       3    231.98    -0.55561 ( 99.78%)    -0.60179 (  0.22%)    -0.55571
       4    289.22    -0.44081 ( 99.91%)    -0.53648 (  0.09%)    -0.44090
   ------------------------------------------------------------------------

   temp. (K)  partition function   enthalpy   heat capacity  entropy
                                   cal/mol     cal/K/mol   cal/K/mol   J/K/mol
 298.15  VIB   15.5                 2250.703     16.464     12.894
         ROT  0.143E+06              888.752      2.981     26.565
         INT  0.221E+07             3139.456     19.445     39.459
         TR   0.814E+27             1481.254      4.968     39.356
         TOT                        4620.7097    24.4130    78.8150   329.7618

       T/K    H(0)-H(T)+PV         H(T)/Eh          T*S/Eh         G(T)/Eh
   ------------------------------------------------------------------------
    298.15    0.736357E-02    0.111370E+00    0.374475E-01    0.739224E-01
   ------------------------------------------------------------------------

         :::::::::::::::::::::::::::::::::::::::::::::::::::::
         ::                  THERMODYNAMIC                  ::
         :::::::::::::::::::::::::::::::::::::::::::::::::::::
         :: total free energy         -20.968385335170 Eh   ::
         ::.................................................::
         :: total energy              -21.042307766167 Eh   ::
         :: zero point energy           0.104006397276 Eh   ::
         :: G(RRHO) w/o ZPVE           -0.030083966279 Eh   ::
         :: G(RRHO) contrib.            0.073922430997 Eh   ::
         :::::::::::::::::::::::::::::::::::::::::::::::::::::
imag cut-off (cm-1) :    5.00
 found            1  significant imaginary frequency
 writing imag mode distorted coords to xtbhess.xyz
 for further optimization.

optimized geometry written to: xtbopt.xyz


           -------------------------------------------------
          | TOTAL ENERGY              -21.042307766167 Eh   |
          | TOTAL ENTHALPY            -20.930937799262 Eh   |
          | TOTAL FREE ENERGY         -20.968385335170 Eh   |
          | GRADIENT NORM               0.000147667208 Eh/α |
          | HOMO-LUMO GAP               3.519779906254 eV   |
           -------------------------------------------------

------------------------------------------------------------------------
 * finished run on 2025/07/30 at 12:34:40.860     
------------------------------------------------------------------------
 total:
 * wall-time:     0 d,  0 h,  0 min,  0.130 sec
 *  cpu-time:     0 d,  0 h,  0 min,  0.926 sec
 * ratio c/w:     7.103 speedup
 SCF:
 * wall-time:     0 d,  0 h,  0 min,  0.006 sec
 *  cpu-time:     0 d,  0 h,  0 min,  0.047 sec
 * ratio c/w:     7.390 speedup
 ANC optimizer:
 * wall-time:     0 d,  0 h,  0 min,  0.014 sec
 *  cpu-time:     0 d,  0 h,  0 min,  0.103 sec
 * ratio c/w:     7.614 speedup
 analytical hessian:
 * wall-time:     0 d,  0 h,  0 min,  0.102 sec
 *  cpu-time:     0 d,  0 h,  0 min,  0.718 sec
 * ratio c/w:     7.058 speedup

