13
 energy: -21.042307766165 gnorm: 0.000147658906 xtb: 6.6.0 (8843059)
C           -1.19456500000000       -1.31027000000000       -0.55207700000000
C           -0.72506200000000       -0.19316400000000        0.39047700000000
C            0.71055500000000        0.15002500000000        0.03272700000000
O            1.05529900000000        1.15867500000000       -0.52372400000000
O            1.56670000000000       -0.80957400000000        0.39167100000000
N           -1.55721300000000        0.99742100000000        0.33965500000000
H           -2.21486200000000       -1.59083700000000       -0.30151700000000
H           -1.16504400000000       -0.96820900000000       -1.58558700000000
H           -0.55515900000000       -2.18296700000000       -0.45012500000000
H           -0.72298900000000       -0.58017900000000        1.41958200000000
H            2.47208500000000       -0.56651600000000        0.13985900000000
H           -2.36537000000000        0.84942200000000       -0.25337500000000
H           -1.02146500000000        1.76495700000000       -0.05702000000000
