 Entering Gaussian System
 *********************************************
 Gaussian 98:
 frequency output generated by the xtb code
 *********************************************
                         Standard orientation:
 --------------------------------------------------------------------
  Center     Atomic     Atomic              Coordinates (Angstroms)
  Number     Number      Type              X           Y           Z
 --------------------------------------------------------------------
    1          6             0       -1.201290   -1.227686   -0.696446
    2          6             0       -0.722270   -0.234249    0.380955
    3          6             0        0.705489    0.137933    0.027849
    4          8             0        1.021461    1.060195   -0.673586
    5          8             0        1.590932   -0.717762    0.544823
    6          7             0       -1.511643    0.976890    0.474253
    7          1             0       -2.225029   -1.530431   -0.486070
    8          1             0       -1.166614   -0.758604   -1.678419
    9          1             0       -0.570239   -2.112552   -0.704554
   10          1             0       -0.724365   -0.733728    1.356491
   11          1             0        2.492485   -0.475573    0.277627
   12          1             0       -1.252533    1.609616   -0.276550
   13          1             0       -2.500068    0.767686    0.392606
 --------------------------------------------------------------------
     1 basis functions        1 primitive gaussians
     1 alpha electrons        1 beta electrons
 
 Harmonic frequencies (cm**-1), IR intensities (km*mol⁻¹),
 Raman scattering activities (A**4/amu), Raman depolarization ratios,
 reduced masses (AMU), force constants (mDyne/A) and normal coordinates:
                      1                      2                      3
                        a                      a                      a 
 Frequencies --    52.4255               207.3079               210.4538
 Red. masses --    12.9786                 7.4283                 3.2626
 Frc consts  --     0.0000                 0.0000                 0.0000
 IR Inten    --     3.1197                20.1377                 6.2317
 Raman Activ --     0.0000                 0.0000                 0.0000
 Depolar     --     0.0000                 0.0000                 0.0000
 Atom AN      X      Y      Z        X      Y      Z        X      Y      Z
   1   6     0.09  -0.22   0.30    -0.39  -0.09   0.01    -0.19  -0.06   0.04
   2   6    -0.01   0.11   0.05     0.01  -0.20  -0.10     0.03   0.01  -0.13
   3   6    -0.00   0.06   0.04     0.02  -0.11  -0.01     0.05   0.04  -0.08
   4   8     0.06   0.32   0.41    -0.20   0.11   0.18     0.27   0.08   0.06
   5   8    -0.07  -0.31  -0.45     0.25   0.19   0.07    -0.07  -0.00   0.09
   6   7    -0.09   0.09  -0.32     0.26  -0.01  -0.13    -0.02  -0.03  -0.06
   7   1     0.03  -0.07   0.10    -0.10  -0.00   0.10     0.11  -0.36   0.33
   8   1     0.02  -0.14   0.05    -0.20  -0.01   0.01    -0.54   0.12   0.06
   9   1     0.04  -0.05   0.17    -0.14  -0.05  -0.07     0.21   0.18  -0.32
  10   1    -0.01   0.10   0.05    -0.01  -0.05  -0.03     0.05   0.01  -0.03
  11   1    -0.02  -0.08  -0.12     0.05   0.15   0.07     0.00  -0.00   0.08
  12   1     0.04   0.01  -0.08     0.38   0.12   0.17    -0.16  -0.07  -0.12
  13   1    -0.01   0.02  -0.17     0.08   0.11  -0.41    -0.01  -0.05   0.18
                      4                      5                      6
                        a                      a                      a 
 Frequencies --   217.7758               284.7894               350.3753
 Red. masses --     4.9115                10.3053                10.6113
 Frc consts  --     0.0000                 0.0000                 0.0000
 IR Inten    --    22.0005                 2.9888                 1.8306
 Raman Activ --     0.0000                 0.0000                 0.0000
 Depolar     --     0.0000                 0.0000                 0.0000
 Atom AN      X      Y      Z        X      Y      Z        X      Y      Z
   1   6    -0.32  -0.13  -0.01     0.18   0.07  -0.10    -0.19   0.36   0.07
   2   6     0.02  -0.11  -0.17    -0.09  -0.06   0.16     0.06   0.04   0.20
   3   6     0.04   0.00  -0.06    -0.10  -0.13   0.20     0.13  -0.06   0.18
   4   8     0.09   0.18   0.19    -0.51  -0.12   0.11     0.05  -0.16   0.04
   5   8     0.09   0.10   0.04     0.15  -0.04  -0.06     0.43  -0.01  -0.08
   6   7     0.21  -0.02  -0.09     0.34   0.24  -0.23    -0.40  -0.17  -0.27
   7   1    -0.18   0.21  -0.07     0.10  -0.14  -0.04    -0.08   0.18   0.03
   8   1     0.10  -0.15  -0.05    -0.03   0.14   0.02    -0.05   0.20   0.06
   9   1    -0.28  -0.18   0.15     0.17   0.11  -0.14    -0.14   0.04  -0.10
  10   1     0.01  -0.01  -0.04    -0.12   0.00   0.05    -0.02   0.03   0.07
  11   1     0.03   0.09   0.08     0.01   0.04  -0.08     0.07   0.03  -0.13
  12   1    -0.27  -0.19  -0.29    -0.02  -0.14  -0.27    -0.15  -0.11  -0.14
  13   1     0.02  -0.02   0.48     0.05   0.14   0.23    -0.07  -0.19  -0.12
                      7                      8                      9
                        a                      a                      a 
 Frequencies --   485.2270               606.9471               626.9693
 Red. masses --    10.9182                 6.0375                 9.3713
 Frc consts  --     0.0000                 0.0000                 0.0000
 IR Inten    --    26.4398                68.9043                41.5688
 Raman Activ --     0.0000                 0.0000                 0.0000
 Depolar     --     0.0000                 0.0000                 0.0000
 Atom AN      X      Y      Z        X      Y      Z        X      Y      Z
   1   6    -0.03  -0.21  -0.11     0.09   0.12   0.09    -0.03  -0.06  -0.08
   2   6    -0.32   0.14  -0.18     0.10   0.14  -0.08     0.16   0.21  -0.31
   3   6    -0.06  -0.16   0.07     0.10  -0.26  -0.28     0.27   0.01   0.09
   4   8     0.20  -0.24   0.13    -0.25   0.07   0.02    -0.39   0.13  -0.05
   5   8     0.42   0.11  -0.13     0.08  -0.27  -0.00     0.19  -0.23   0.29
   6   7    -0.24   0.30   0.19    -0.13   0.08   0.03    -0.10   0.09   0.05
   7   1     0.02  -0.17  -0.05     0.03   0.02   0.02     0.01   0.02   0.12
   8   1    -0.01  -0.17  -0.08     0.03   0.01   0.01    -0.09  -0.17  -0.09
   9   1     0.10   0.01   0.10     0.05   0.05   0.06    -0.02  -0.03   0.06
  10   1    -0.16   0.02  -0.06     0.05   0.07  -0.01    -0.01   0.03  -0.10
  11   1     0.03   0.22  -0.10     0.11   0.33   0.66     0.06  -0.44  -0.23
  12   1    -0.08   0.16   0.11    -0.10   0.06   0.02    -0.12   0.13   0.08
  13   1    -0.07   0.12   0.09    -0.01  -0.09  -0.01    -0.01  -0.08   0.03
                     10                     11                     12
                        a                      a                      a 
 Frequencies --   723.4814               814.9346               938.4585
 Red. masses --    10.4288                 9.1719                 6.5387
 Frc consts  --     0.0000                 0.0000                 0.0000
 IR Inten    --   127.4422                26.3571               146.9957
 Raman Activ --     0.0000                 0.0000                 0.0000
 Depolar     --     0.0000                 0.0000                 0.0000
 Atom AN      X      Y      Z        X      Y      Z        X      Y      Z
   1   6     0.07   0.12   0.11     0.16   0.20   0.07    -0.03  -0.20  -0.23
   2   6    -0.03   0.00   0.05     0.28   0.19  -0.32     0.26   0.05   0.13
   3   6    -0.12  -0.47  -0.60    -0.27  -0.12   0.15    -0.04  -0.05   0.00
   4   8     0.03   0.09   0.25    -0.06  -0.30   0.20    -0.01  -0.06   0.07
   5   8     0.02   0.19   0.22    -0.18   0.15  -0.10    -0.09   0.06  -0.03
   6   7    -0.04   0.02  -0.01     0.14  -0.17  -0.06    -0.05   0.40   0.30
   7   1     0.01  -0.02  -0.08     0.06   0.17   0.29    -0.01   0.00   0.02
   8   1     0.08   0.10   0.06    -0.10  -0.13  -0.07    -0.05  -0.09  -0.08
   9   1     0.06   0.06   0.01    -0.03   0.00   0.10    -0.07  -0.10  -0.10
  10   1     0.10   0.07   0.05     0.06  -0.01  -0.11     0.11  -0.02   0.01
  11   1    -0.05  -0.18  -0.34    -0.14   0.25  -0.16    -0.04   0.06  -0.04
  12   1    -0.02  -0.00  -0.01    -0.08   0.12   0.09    -0.09  -0.31  -0.34
  13   1    -0.00  -0.02  -0.00     0.06  -0.16   0.04     0.09  -0.32  -0.40
                     13                     14                     15
                        a                      a                      a 
 Frequencies --   946.6648              1019.6479              1068.9301
 Red. masses --     4.2438                 3.9845                 9.3813
 Frc consts  --     0.0000                 0.0000                 0.0000
 IR Inten    --    42.2098                 5.9995                43.3418
 Raman Activ --     0.0000                 0.0000                 0.0000
 Depolar     --     0.0000                 0.0000                 0.0000
 Atom AN      X      Y      Z        X      Y      Z        X      Y      Z
   1   6    -0.10   0.38   0.09    -0.34  -0.09   0.06    -0.13  -0.04  -0.40
   2   6    -0.23  -0.08  -0.11     0.10   0.17  -0.10     0.07   0.39   0.55
   3   6     0.04   0.03  -0.01     0.02   0.04   0.13    -0.02  -0.07  -0.12
   4   8     0.03   0.05  -0.04    -0.04  -0.07   0.02     0.02   0.04   0.00
   5   8     0.04  -0.01   0.01    -0.05   0.02  -0.03    -0.00   0.01   0.02
   6   7     0.11  -0.12   0.12     0.20  -0.09  -0.03     0.09  -0.23  -0.15
   7   1     0.05  -0.16   0.02    -0.09  -0.33  -0.44     0.02  -0.07   0.06
   8   1     0.01  -0.25  -0.14     0.22   0.15   0.11    -0.13  -0.30  -0.24
   9   1     0.23   0.27   0.45     0.19   0.17   0.06     0.02   0.02   0.14
  10   1    -0.12  -0.22  -0.13     0.11   0.25   0.08    -0.11   0.01   0.10
  11   1     0.03  -0.07   0.01    -0.03   0.04  -0.04    -0.00   0.03   0.03
  12   1     0.07  -0.31  -0.21    -0.15   0.17   0.09     0.06   0.08   0.11
  13   1     0.05  -0.11  -0.19     0.12  -0.35  -0.06     0.02  -0.05   0.12
                     16                     17                     18
                        a                      a                      a 
 Frequencies --  1105.9201              1139.9785              1189.1032
 Red. masses --     4.4888                 8.4871                 7.9383
 Frc consts  --     0.0000                 0.0000                 0.0000
 IR Inten    --   102.6467               202.1740                 1.8980
 Raman Activ --     0.0000                 0.0000                 0.0000
 Depolar     --     0.0000                 0.0000                 0.0000
 Atom AN      X      Y      Z        X      Y      Z        X      Y      Z
   1   6     0.09  -0.00   0.06    -0.12   0.06  -0.05     0.08  -0.11   0.01
   2   6    -0.09  -0.11   0.03     0.25  -0.11   0.03    -0.31   0.49  -0.17
   3   6     0.21  -0.12  -0.02     0.24  -0.13   0.11     0.01  -0.04   0.03
   4   8     0.02  -0.05   0.05    -0.07  -0.23   0.17    -0.03  -0.11   0.08
   5   8    -0.15   0.29  -0.19    -0.19   0.35  -0.24     0.04   0.14  -0.10
   6   7     0.12   0.05   0.01    -0.22   0.11  -0.08     0.11  -0.32   0.16
   7   1     0.01   0.06   0.07     0.00  -0.11  -0.07    -0.02   0.10   0.00
   8   1    -0.04   0.02   0.03     0.03  -0.08  -0.06    -0.03   0.09   0.05
   9   1    -0.06  -0.06  -0.06     0.08   0.09   0.12    -0.07  -0.09  -0.15
  10   1    -0.63   0.02   0.03     0.34  -0.11  -0.03     0.11   0.27   0.03
  11   1     0.13  -0.28   0.18     0.14  -0.31   0.21     0.14  -0.25   0.17
  12   1    -0.20   0.18   0.07     0.08   0.01   0.02     0.17  -0.32  -0.13
  13   1     0.10  -0.31  -0.05    -0.11   0.25   0.13    -0.00   0.10  -0.08
                     19                     20                     21
                        a                      a                      a 
 Frequencies --  1218.8982              1271.8483              1336.9876
 Red. masses --     7.5050                 3.6747                 6.4796
 Frc consts  --     0.0000                 0.0000                 0.0000
 IR Inten    --    89.5133                16.4005                28.7292
 Raman Activ --     0.0000                 0.0000                 0.0000
 Depolar     --     0.0000                 0.0000                 0.0000
 Atom AN      X      Y      Z        X      Y      Z        X      Y      Z
   1   6    -0.04  -0.05   0.06     0.04   0.15  -0.18     0.14   0.04   0.01
   2   6     0.07   0.16  -0.04    -0.11  -0.35  -0.06    -0.53   0.01   0.11
   3   6     0.59  -0.22   0.06     0.17  -0.02   0.05     0.33  -0.09   0.07
   4   8    -0.07   0.06  -0.03    -0.01   0.01  -0.02    -0.03   0.03  -0.02
   5   8    -0.28   0.03   0.01    -0.07   0.00   0.00    -0.09   0.03  -0.02
   6   7    -0.09  -0.10   0.06     0.01  -0.01   0.07     0.13   0.08  -0.11
   7   1    -0.02  -0.04  -0.08     0.05   0.03   0.16     0.02   0.03   0.01
   8   1     0.03   0.05   0.05    -0.08  -0.13  -0.12    -0.11  -0.05  -0.03
   9   1     0.00  -0.01  -0.05    -0.00   0.02   0.14    -0.11  -0.10  -0.04
  10   1    -0.26  -0.04  -0.06     0.11   0.70   0.39     0.50  -0.23  -0.08
  11   1    -0.23   0.39  -0.25    -0.06   0.09  -0.07    -0.05   0.09  -0.05
  12   1     0.13  -0.16  -0.05    -0.06   0.01   0.00    -0.11   0.18   0.07
  13   1    -0.07   0.19   0.03    -0.01   0.06  -0.04     0.10  -0.31   0.01
                     22                     23                     24
                        a                      a                      a 
 Frequencies --  1393.2761              1488.7003              1490.2683
 Red. masses --     3.0100                 1.6137                 1.5763
 Frc consts  --     0.0000                 0.0000                 0.0000
 IR Inten    --     3.8565                 3.5800                 4.5330
 Raman Activ --     0.0000                 0.0000                 0.0000
 Depolar     --     0.0000                 0.0000                 0.0000
 Atom AN      X      Y      Z        X      Y      Z        X      Y      Z
   1   6    -0.11  -0.28  -0.28     0.17  -0.13   0.05    -0.12  -0.10   0.14
   2   6    -0.07   0.01   0.02     0.06  -0.04   0.00    -0.06  -0.03   0.03
   3   6     0.06  -0.03   0.01    -0.01   0.02  -0.00     0.03  -0.01   0.00
   4   8    -0.00   0.01  -0.01    -0.00  -0.01   0.01    -0.00   0.01  -0.00
   5   8    -0.02   0.01  -0.01     0.00  -0.00   0.00    -0.01   0.00  -0.00
   6   7     0.01   0.02  -0.01    -0.02   0.01   0.00     0.02  -0.00  -0.00
   7   1    -0.02   0.31   0.41    -0.20   0.35  -0.49    -0.14   0.46   0.04
   8   1     0.15   0.47   0.22    -0.66   0.06   0.01     0.20  -0.36  -0.15
   9   1     0.28   0.17   0.39     0.17   0.09   0.25     0.44   0.32  -0.46
  10   1     0.04  -0.06  -0.03    -0.02   0.02   0.02     0.03   0.01   0.02
  11   1    -0.01   0.01  -0.01    -0.00   0.00  -0.00    -0.00   0.00  -0.01
  12   1    -0.02   0.01  -0.00     0.02  -0.01   0.00    -0.04   0.02   0.00
  13   1     0.01  -0.04  -0.01    -0.00  -0.01   0.01     0.00   0.00  -0.02
                     25                     26                     27
                        a                      a                      a 
 Frequencies --  1545.7824              1794.8558              2929.4880
 Red. masses --     2.1009                13.2520                 1.7416
 Frc consts  --     0.0000                 0.0000                 0.0000
 IR Inten    --    48.0054               438.2444                27.2733
 Raman Activ --     0.0000                 0.0000                 0.0000
 Depolar     --     0.0000                 0.0000                 0.0000
 Atom AN      X      Y      Z        X      Y      Z        X      Y      Z
   1   6     0.00  -0.00  -0.01     0.00   0.01   0.01     0.00   0.01  -0.01
   2   6     0.00   0.05   0.09     0.06   0.02  -0.03    -0.01  -0.11   0.23
   3   6     0.03   0.02  -0.02    -0.24  -0.60   0.46    -0.00  -0.01   0.01
   4   8    -0.01  -0.03   0.02     0.16   0.45  -0.34     0.00   0.00  -0.00
   5   8    -0.00   0.00  -0.00    -0.01   0.06  -0.04     0.00   0.00  -0.00
   6   7     0.19  -0.18   0.07    -0.00  -0.00   0.00     0.00  -0.01  -0.00
   7   1    -0.00  -0.02  -0.03    -0.00  -0.00  -0.02    -0.02  -0.00   0.00
   8   1    -0.03   0.01   0.00    -0.01  -0.01  -0.00    -0.00  -0.02   0.06
   9   1    -0.01  -0.01   0.02     0.00   0.00   0.01     0.01  -0.01  -0.00
  10   1     0.04  -0.10  -0.03     0.05   0.01   0.01     0.01   0.44  -0.86
  11   1    -0.00   0.00  -0.00     0.04  -0.08   0.05    -0.00  -0.00   0.00
  12   1    -0.67   0.16  -0.09    -0.04   0.00  -0.01     0.00  -0.01   0.01
  13   1    -0.07   0.50  -0.40    -0.01   0.03  -0.01     0.01  -0.00   0.00
                     28                     29                     30
                        a                      a                      a 
 Frequencies --  3026.9484              3029.5012              3043.6915
 Red. masses --     1.9525                 1.5353                 1.6686
 Frc consts  --     0.0000                 0.0000                 0.0000
 IR Inten    --    29.1320                21.9133                18.4808
 Raman Activ --     0.0000                 0.0000                 0.0000
 Depolar     --     0.0000                 0.0000                 0.0000
 Atom AN      X      Y      Z        X      Y      Z        X      Y      Z
   1   6     0.16   0.12  -0.21     0.19  -0.03   0.10     0.13  -0.21   0.00
   2   6     0.00   0.01  -0.02     0.01  -0.00   0.01     0.00  -0.01   0.00
   3   6    -0.00   0.00  -0.00    -0.00  -0.00   0.00     0.00  -0.00   0.00
   4   8    -0.00  -0.00   0.00     0.00   0.00  -0.00    -0.00   0.00  -0.00
   5   8     0.00  -0.00   0.00    -0.00  -0.00   0.00    -0.00   0.00  -0.00
   6   7    -0.00  -0.00   0.00    -0.00  -0.00  -0.00    -0.00   0.00  -0.00
   7   1    -0.56  -0.15   0.10    -0.71  -0.22   0.17     0.10  -0.00  -0.02
   8   1    -0.01  -0.33   0.68     0.05   0.26  -0.54     0.02  -0.03   0.02
   9   1    -0.00   0.05  -0.03    -0.02   0.06   0.01    -0.57   0.78  -0.00
  10   1    -0.00  -0.03   0.05     0.00   0.01  -0.02     0.00   0.01  -0.01
  11   1     0.00  -0.00  -0.00     0.00   0.00  -0.00    -0.00  -0.00   0.00
  12   1     0.00   0.00  -0.00     0.00   0.00   0.00    -0.00  -0.00   0.00
  13   1     0.00   0.00  -0.00     0.00   0.00   0.00     0.00   0.00   0.00
                     31                     32                     33
                        a                      a                      a 
 Frequencies --  3384.0864              3422.7999              3435.9413
 Red. masses --     1.5432                 2.0438                 1.8453
 Frc consts  --     0.0000                 0.0000                 0.0000
 IR Inten    --     6.9532                 1.9141                30.0492
 Raman Activ --     0.0000                 0.0000                 0.0000
 Depolar     --     0.0000                 0.0000                 0.0000
 Atom AN      X      Y      Z        X      Y      Z        X      Y      Z
   1   6    -0.00   0.00   0.00    -0.00  -0.00  -0.00     0.00  -0.00  -0.00
   2   6     0.00  -0.00   0.01     0.00   0.00  -0.00     0.00   0.00   0.00
   3   6    -0.00  -0.00   0.00     0.00  -0.00   0.00    -0.01   0.00  -0.00
   4   8     0.00   0.00  -0.00    -0.00  -0.00   0.00    -0.00  -0.00   0.00
   5   8    -0.00  -0.00   0.00     0.01   0.00  -0.00    -0.22  -0.06   0.07
   6   7     0.06  -0.12   0.15     0.24   0.12  -0.08     0.01   0.00  -0.00
   7   1    -0.00  -0.00   0.00    -0.00  -0.00  -0.00     0.00   0.00  -0.00
   8   1     0.00   0.00  -0.00     0.00   0.00   0.00    -0.00  -0.00   0.00
   9   1    -0.00   0.01   0.00    -0.00   0.00   0.00    -0.00   0.00   0.00
  10   1     0.00   0.00  -0.01     0.00   0.00   0.00     0.00   0.00  -0.00
  11   1     0.00   0.00  -0.00    -0.02  -0.01   0.01     0.91   0.23  -0.26
  12   1     0.25   0.55  -0.61    -0.10  -0.29   0.34    -0.00  -0.01   0.01
  13   1    -0.46  -0.11   0.01    -0.83  -0.17  -0.05    -0.02  -0.00  -0.00
