      -----------------------------------------------------------      
     |                   =====================                   |     
     |                           x T B                           |     
     |                   =====================                   |     
     |                         S. Grimme                         |     
     |          Mulliken Center for Theoretical Chemistry        |     
     |                    University of Bonn                     |     
      -----------------------------------------------------------      

   * xtb version 6.6.0 (8843059) compiled by 'stahn@majestix' on 2023-02-09

   xtb is free software: you can redistribute it and/or modify it under
   the terms of the GNU Lesser General Public License as published by
   the Free Software Foundation, either version 3 of the License, or
   (at your option) any later version.
   
   xtb is distributed in the hope that it will be useful,
   but WITHOUT ANY WARRANTY; without even the implied warranty of
   MERCHANTABILITY or FITNESS FOR A PARTICULAR PURPOSE.  See the
   GNU Lesser General Public License for more details.
   
   Cite this work as:
   * C. Bannwarth, E. Caldeweyher, S. Ehlert, A. Hansen, P. Pracht,
     J. Seibert, S. Spicher, S. Grimme, WIREs Comput. Mol. Sci., 2020, 11,
     e01493. DOI: 10.1002/wcms.1493
   
   for GFN2-xTB:
   * C. Bannwarth, S. Ehlert and S. Grimme., J. Chem. Theory Comput., 2019,
     15, 1652-1671. DOI: 10.1021/acs.jctc.8b01176
   for GFN1-xTB:
   * S. Grimme, C. Bannwarth, P. Shushkov, J. Chem. Theory Comput., 2017,
     13, 1989-2009. DOI: 10.1021/acs.jctc.7b00118
   for GFN0-xTB:
   * P. Pracht, E. Caldeweyher, S. Ehlert, S. Grimme, ChemRxiv, 2019, preprint.
     DOI: 10.26434/chemrxiv.8326202.v1
   for GFN-FF:
   * S. Spicher and S. Grimme, Angew. Chem. Int. Ed., 2020, 59, 15665-15673.
     DOI: 10.1002/anie.202004239
   
   for ALPB and GBSA implicit solvation:
   * S. Ehlert, M. Stahn, S. Spicher, S. Grimme, J. Chem. Theory Comput.,
     2021, 17, 4250-4261. DOI: 10.1021/acs.jctc.1c00471
   
   for DFT-D4:
   * E. Caldeweyher, C. Bannwarth and S. Grimme, J. Chem. Phys., 2017,
     147, 034112. DOI: 10.1063/1.4993215
   * E. Caldeweyher, S. Ehlert, A. Hansen, H. Neugebauer, S. Spicher,
     C. Bannwarth and S. Grimme, J. Chem. Phys., 2019, 150, 154122.
     DOI: 10.1063/1.5090222
   * E. Caldeweyher, J.-M. Mewes, S. Ehlert and S. Grimme, Phys. Chem. Chem. Phys.
     2020, 22, 8499-8512. DOI: 10.1039/D0CP00502A
   
   for sTDA-xTB:
   * S. Grimme and C. Bannwarth, J. Chem. Phys., 2016, 145, 054103.
     DOI: 10.1063/1.4959605
   
   in the mass-spec context:
   * V. Asgeirsson, C. Bauer and S. Grimme, Chem. Sci., 2017, 8, 4879.
     DOI: 10.1039/c7sc00601b
   * J. Koopman and S. Grimme, ACS Omega 2019, 4, 12, 15120-15133.
     DOI: 10.1021/acsomega.9b02011
   
   for metadynamics refer to:
   * S. Grimme, J. Chem. Theory Comput., 2019, 155, 2847-2862
     DOI: 10.1021/acs.jctc.9b00143
   
   for SPH calculations refer to:
   * S. Spicher and S. Grimme, J. Chem. Theory Comput., 2021, 17, 1701-1714
     DOI: 10.1021/acs.jctc.0c01306
   
   with help from (in alphabetical order)
   P. Atkinson, C. Bannwarth, F. Bohle, G. Brandenburg, E. Caldeweyher
   M. Checinski, S. Dohm, S. Ehlert, S. Ehrlich, I. Gerasimov, C. Hölzer
   A. Katbashev, J. Koopman, C. Lavigne, S. Lehtola, F. März, M. Müller,
   F. Musil, H. Neugebauer, J. Pisarek, C. Plett, P. Pracht, F. Pultar,
   J. Seibert, P. Shushkov, S. Spicher, M. Stahn, M. Steiner, T. Strunk,
   J. Stückrath, T. Rose, and J. Unsleber
   
 * started run on 2025/07/30 at 12:34:40.141     

           -------------------------------------------------
          |                Calculation Setup                |
           -------------------------------------------------

          program call               : xtb --gfn2 in.xyz --ohess vtight
          coordinate file            : in.xyz
          omp threads                :                     8

   ID    Z sym.   atoms
    1    6 C      1-3
    2    8 O      4, 5
    3    7 N      6
    4    1 H      7-13

           -------------------------------------------------
          |                 G F N 2 - x T B                 |
           -------------------------------------------------

        Reference                      10.1021/acs.jctc.8b01176
      * Hamiltonian:
        H0-scaling (s, p, d)           1.850000    2.230000    2.230000
        zeta-weighting                 0.500000
      * Dispersion:
        s8                             2.700000
        a1                             0.520000
        a2                             5.000000
        s9                             5.000000
      * Repulsion:
        kExp                           1.500000    1.000000
        rExp                           1.000000
      * Coulomb:
        alpha                          2.000000
        third order                    shell-resolved
        anisotropic                    true
        a3                             3.000000
        a5                             4.000000
        cn-shift                       1.200000
        cn-exp                         4.000000
        max-rad                        5.000000


          ...................................................
          :                      SETUP                      :
          :.................................................:
          :  # basis functions                  31          :
          :  # atomic orbitals                  31          :
          :  # shells                           19          :
          :  # electrons                        36          :
          :  max. iterations                   250          :
          :  Hamiltonian                  GFN2-xTB          :
          :  restarted?                      false          :
          :  GBSA solvation                  false          :
          :  PC potential                    false          :
          :  electronic temp.          300.0000000     K    :
          :  accuracy                    1.0000000          :
          :  -> integral cutoff          0.2500000E+02      :
          :  -> integral neglect         0.1000000E-07      :
          :  -> SCF convergence          0.1000000E-05 Eh   :
          :  -> wf. convergence          0.1000000E-03 e    :
          :  Broyden damping             0.4000000          :
          ...................................................

 iter      E             dE          RMSdq      gap      omega  full diag
   1    -21.2137088 -0.212137E+02  0.416E+00    4.29       0.0  T
   2    -21.2486818 -0.349730E-01  0.214E+00    3.86       1.0  T
   3    -21.2503960 -0.171414E-02  0.116E+00    4.08       1.0  T
   4    -21.2526873 -0.229131E-02  0.175E-01    3.68       1.0  T
   5    -21.2528077 -0.120460E-03  0.630E-02    3.66       1.0  T
   6    -21.2528132 -0.544605E-05  0.253E-02    3.66       1.1  T
   7    -21.2528150 -0.181537E-05  0.671E-03    3.66       4.1  T
   8    -21.2528151 -0.746855E-07  0.330E-03    3.66       8.4  T
   9    -21.2528151 -0.761816E-07  0.903E-04    3.66      30.7  T
  10    -21.2528151 -0.553297E-08  0.342E-04    3.66      81.2  T

   *** convergence criteria satisfied after 10 iterations ***

         #    Occupation            Energy/Eh            Energy/eV
      -------------------------------------------------------------
         1        2.0000           -0.7508634             -20.4320
       ...           ...                  ...                  ...
        12        2.0000           -0.5048782             -13.7384
        13        2.0000           -0.4870333             -13.2529
        14        2.0000           -0.4804821             -13.0746
        15        2.0000           -0.4789971             -13.0342
        16        2.0000           -0.4614406             -12.5564
        17        2.0000           -0.4226360             -11.5005
        18        2.0000           -0.3742764             -10.1846 (HOMO)
        19                         -0.2397048              -6.5227 (LUMO)
        20                          0.0324463               0.8829
        21                          0.0642697               1.7489
        22                          0.0863036               2.3484
        23                          0.1275396               3.4705
       ...                                ...                  ...
        31                          0.6422979              17.4778
      -------------------------------------------------------------
                  HL-Gap            0.1345716 Eh            3.6619 eV
             Fermi-level           -0.3069906 Eh           -8.3536 eV

 SCC (total)                   0 d,  0 h,  0 min,  0.008 sec
 SCC setup                      ...        0 min,  0.001 sec ( 10.252%)
 Dispersion                     ...        0 min,  0.000 sec (  2.184%)
 classical contributions        ...        0 min,  0.000 sec (  1.055%)
 integral evaluation            ...        0 min,  0.001 sec (  7.702%)
 iterations                     ...        0 min,  0.005 sec ( 66.006%)
 molecular gradient             ...        0 min,  0.001 sec ( 11.435%)
 printout                       ...        0 min,  0.000 sec (  1.094%)

         :::::::::::::::::::::::::::::::::::::::::::::::::::::
         ::                     SUMMARY                     ::
         :::::::::::::::::::::::::::::::::::::::::::::::::::::
         :: total energy             -21.042880924977 Eh    ::
         :: gradient norm              0.000011026713 Eh/a0 ::
         :: HOMO-LUMO gap              3.661879793942 eV    ::
         ::.................................................::
         :: SCC energy               -21.252815137785 Eh    ::
         :: -> isotropic ES            0.058238308580 Eh    ::
         :: -> anisotropic ES          0.003028950976 Eh    ::
         :: -> anisotropic XC          0.006440687302 Eh    ::
         :: -> dispersion             -0.007007549195 Eh    ::
         :: repulsion energy           0.209924140806 Eh    ::
         :: add. restraining           0.000000000000 Eh    ::
         :: total charge              -0.000000000000 e     ::
         :::::::::::::::::::::::::::::::::::::::::::::::::::::

      ----------------------------------------------------------- 
     |                   =====================                   |
     |                        A N C O P T                        |
     |                   =====================                   |
     |               Approximate Normal Coordinate               |
     |                Rational Function Optimizer                |
      ----------------------------------------------------------- 

          ...................................................
          :                      SETUP                      :
          :.................................................:
          :   optimization level         verytight          :
          :   max. optcycles                   260          :
          :   ANC micro-cycles                  20          :
          :   degrees of freedom                33          :
          :.................................................:
          :   RF solver                   davidson          :
          :   write xtbopt.log                true          :
          :   linear?                        false          :
          :   energy convergence         0.1000000E-06 Eh   :
          :   grad. convergence          0.2000000E-03 Eh/α :
          :   maxmium RF displ.          1.0000000          :
          :   Hlow (freq-cutoff)         0.1000000E-01      :
          :   Hmax (freq-cutoff)         5.0000000          :
          :   S6 in model hess.         20.0000000          :
          ...................................................

generating ANC from model Hessian ...
Using Lindh-Hessian (1995)
 Shifting diagonal of input Hessian by   3.921554157755633E-003
 Lowest  eigenvalues of input Hessian
    0.000000    0.000000    0.000000    0.000000    0.000000    0.000000
    0.010000    0.013350    0.015906    0.018074    0.021885    0.026540
    0.051940    0.057244    0.062961    0.064939    0.076409    0.092896
 Highest eigenvalues
    1.173430    1.217399    1.358935    1.469624    1.776855    2.370260
 

........................................................................
.............................. CYCLE    1 ..............................
........................................................................

 iter      E             dE          RMSdq      gap      omega  full diag
   1    -21.2528151 -0.212528E+02  0.740E-05    3.66       0.0  T
   2    -21.2528151 -0.416733E-11  0.449E-05    3.66     617.9  T
   3    -21.2528151 -0.113332E-11  0.149E-05    3.66    1860.7  T
     SCC iter.                  ...        0 min,  0.001 sec
     gradient                   ...        0 min,  0.001 sec
 * total energy  :   -21.0428809 Eh     change       -0.3338130E-09 Eh
   gradient norm :     0.0000175 Eh/α   predicted     0.0000000E+00 (-100.00%)
   displ. norm   :     0.0002906 α      lambda        0.1401333E-08
   maximum displ.:     0.0002489 α      in ANC's #2, #6, #1, ...

   *** GEOMETRY OPTIMIZATION CONVERGED AFTER 1 ITERATIONS ***

------------------------------------------------------------------------
 total energy gain   :        -0.0000000 Eh       -0.0000 kcal/mol
 total RMSD          :         0.0000000 a0        0.0000 Å
 total power (kW/mol):        -0.0000009 (step)   -0.0001 (real)
------------------------------------------------------------------------

 ANCopt (total)                0 d,  0 h,  0 min,  0.011 sec
 optimizer setup                ...        0 min,  0.000 sec (  0.869%)
 model hessian                  ...        0 min,  0.004 sec ( 36.523%)
 ANC generation                 ...        0 min,  0.004 sec ( 32.624%)
 coordinate transformation      ...        0 min,  0.000 sec (  0.062%)
 single point calculation       ...        0 min,  0.003 sec ( 26.983%)
 optimization log               ...        0 min,  0.000 sec (  0.707%)
 hessian update                 ...        0 min,  0.000 sec (  0.019%)
 rational function              ...        0 min,  0.000 sec (  1.369%)

================
 final structure:
================
13
 xtb: 6.6.0 (8843059)
C           -1.20128100000000       -1.22769100000000       -0.69645200000000
C           -0.72227000000000       -0.23425300000000        0.38095200000000
C            0.70548800000000        0.13793700000000        0.02785200000000
O            1.02145800000000        1.06020100000000       -0.67358100000000
O            1.59093400000000       -0.71775500000000        0.54482700000000
N           -1.51165000000000        0.97688100000000        0.47424900000000
H           -2.22501900000000       -1.53044200000000       -0.48608000000000
H           -1.16660400000000       -0.75860700000000       -1.67842400000000
H           -0.57022500000000       -2.11255400000000       -0.70456000000000
H           -0.72436600000000       -0.73373400000000        1.35648700000000
H            2.49248600000000       -0.47556000000000        0.27763500000000
H           -1.25254000000000        1.60961000000000       -0.27655200000000
H           -2.50007300000000        0.76767200000000        0.39259900000000
 
 Bond Distances (Angstroems)
 ---------------------------
C1-C2=1.5418         C1-H7=1.0881         C1-H8=1.0888         C1-H9=1.0869         C2-C1=1.5418         C2-C3=1.5171         
C2-N6=1.4487         C2-H10=1.0960        C3-C2=1.5171         C3-O4=1.2010         C3-O5=1.3355         O4-C3=1.2010         
O5-C3=1.3355         O5-H11=0.9710        N6-C2=1.4487         N6-H12=1.0155        N6-H13=1.0136        H7-C1=1.0881         
H8-C1=1.0888         H9-C1=1.0869         H10-C2=1.0960        H11-O5=0.9710        H12-N6=1.0155        H13-N6=1.0136        
 C  H  Rav=1.0899 sigma=0.0036  Rmin=1.0869  Rmax=1.0960     4
 C  C  Rav=1.5295 sigma=0.0123  Rmin=1.5171  Rmax=1.5418     2
 N  H  Rav=1.0145 sigma=0.0009  Rmin=1.0136  Rmax=1.0155     2
 N  C  Rav=1.4487 sigma=0.0000  Rmin=1.4487  Rmax=1.4487     1
 O  H  Rav=0.9710 sigma=0.0000  Rmin=0.9710  Rmax=0.9710     1
 O  C  Rav=1.2682 sigma=0.0672  Rmin=1.2010  Rmax=1.3355     2
 
 selected bond angles (degree)
 --------------------
H7-C1-C2=109.66                H8-C1-C2=110.04                H8-C1-H7=108.92                H9-C1-C2=110.45                
H9-C1-H7=108.74                H9-C1-H8=109.00                C3-C2-C1=106.73                N6-C2-C1=114.48                
N6-C2-C3=108.83                H10-C2-C1=109.13               H10-C2-C3=108.71               H10-C2-N6=108.82               
O4-C3-C2=124.88                O5-C3-C2=112.13                O5-C3-O4=122.93                H11-O5-C3=110.44               
H12-N6-C2=109.53               H13-N6-C2=110.71               H13-N6-H12=108.53              
 
 selected dihedral angles (degree)
 ---------------------------------
C3-C2-C1-H7=179.80            C3-C2-C1-H8=299.59            C3-C2-C1-H9= 59.98            N6-C2-C1-H7=300.26            
N6-C2-C1-H8= 60.06            N6-C2-C1-H9=180.45            H10-C2-C1-H7= 62.49           H10-C2-C1-H8=182.28           
H10-C2-C1-H9=302.67           O4-C3-C2-C1= 90.28            O4-C3-C2-N6=326.25            O4-C3-C2-H10=207.87           
O5-C3-C2-C1=272.89            O5-C3-C2-N6=148.86            O5-C3-C2-H10= 30.48           H11-O5-C3-C2=177.95           
H11-O5-C3-O4=  0.51           H12-N6-C2-C1=281.73           H12-N6-C2-C3= 41.03           H12-N6-C2-H10=159.34          
H13-N6-C2-C1= 41.38           H13-N6-C2-C3=160.68           H13-N6-C2-H10=278.99          
           -------------------------------------------------
          |                Final Singlepoint                |
           -------------------------------------------------

          ...................................................
          :                      SETUP                      :
          :.................................................:
          :  # basis functions                  31          :
          :  # atomic orbitals                  31          :
          :  # shells                           19          :
          :  # electrons                        36          :
          :  max. iterations                   250          :
          :  Hamiltonian                  GFN2-xTB          :
          :  restarted?                      false          :
          :  GBSA solvation                  false          :
          :  PC potential                    false          :
          :  electronic temp.          300.0000000     K    :
          :  accuracy                    1.0000000          :
          :  -> integral cutoff          0.2500000E+02      :
          :  -> integral neglect         0.1000000E-07      :
          :  -> SCF convergence          0.1000000E-05 Eh   :
          :  -> wf. convergence          0.1000000E-03 e    :
          :  Broyden damping             0.4000000          :
          ...................................................

 iter      E             dE          RMSdq      gap      omega  full diag
   1    -21.2528151 -0.212528E+02  0.507E-06    3.66       0.0  T
   2    -21.2528151 -0.426326E-13  0.297E-06    3.66    9323.6  T
   3    -21.2528151 -0.284217E-13  0.164E-06    3.66   16957.1  T

   *** convergence criteria satisfied after 3 iterations ***

         #    Occupation            Energy/Eh            Energy/eV
      -------------------------------------------------------------
         1        2.0000           -0.7508639             -20.4320
       ...           ...                  ...                  ...
        12        2.0000           -0.5048791             -13.7385
        13        2.0000           -0.4870338             -13.2529
        14        2.0000           -0.4804809             -13.0746
        15        2.0000           -0.4789971             -13.0342
        16        2.0000           -0.4614415             -12.5565
        17        2.0000           -0.4226354             -11.5005
        18        2.0000           -0.3742770             -10.1846 (HOMO)
        19                         -0.2397056              -6.5227 (LUMO)
        20                          0.0324462               0.8829
        21                          0.0642692               1.7489
        22                          0.0863023               2.3484
        23                          0.1275380               3.4705
       ...                                ...                  ...
        31                          0.6422970              17.4778
      -------------------------------------------------------------
                  HL-Gap            0.1345714 Eh            3.6619 eV
             Fermi-level           -0.3069913 Eh           -8.3537 eV

 SCC (total)                   0 d,  0 h,  0 min,  0.002 sec
 SCC setup                      ...        0 min,  0.000 sec (  7.539%)
 Dispersion                     ...        0 min,  0.000 sec (  1.556%)
 classical contributions        ...        0 min,  0.000 sec (  2.082%)
 integral evaluation            ...        0 min,  0.000 sec ( 13.054%)
 iterations                     ...        0 min,  0.001 sec ( 39.163%)
 molecular gradient             ...        0 min,  0.001 sec ( 33.045%)
 printout                       ...        0 min,  0.000 sec (  2.811%)

         :::::::::::::::::::::::::::::::::::::::::::::::::::::
         ::                     SUMMARY                     ::
         :::::::::::::::::::::::::::::::::::::::::::::::::::::
         :: total energy             -21.042880925311 Eh    ::
         :: gradient norm              0.000017431031 Eh/a0 ::
         :: HOMO-LUMO gap              3.661873616219 eV    ::
         ::.................................................::
         :: SCC energy               -21.252815138120 Eh    ::
         :: -> isotropic ES            0.058234060567 Eh    ::
         :: -> anisotropic ES          0.003029030444 Eh    ::
         :: -> anisotropic XC          0.006440632801 Eh    ::
         :: -> dispersion             -0.007007544087 Eh    ::
         :: repulsion energy           0.209924140806 Eh    ::
         :: add. restraining           0.000000000000 Eh    ::
         :: total charge              -0.000000000000 e     ::
         :::::::::::::::::::::::::::::::::::::::::::::::::::::

           ------------------------------------------------- 
          |                Numerical Hessian                |
           ------------------------------------------------- 
step length          :   0.00500
SCC accuracy         :   0.30000
Hessian scale factor :   1.00000
frozen atoms in %    :   0.00000    0
RMS gradient         :   0.00002
estimated CPU  time      0.04 min
estimated wall time      0.01 min

writing file <hessian>.

 projected vibrational frequencies (cm⁻¹)
eigval :       -0.00     0.00     0.00     0.00     0.00     0.00
eigval :       52.43   207.31   210.45   217.78   284.79   350.38
eigval :      485.23   606.95   626.97   723.48   814.93   938.46
eigval :      946.66  1019.65  1068.93  1105.92  1139.98  1189.10
eigval :     1218.90  1271.85  1336.99  1393.28  1488.70  1490.27
eigval :     1545.78  1794.86  2929.49  3026.95  3029.50  3043.69
eigval :     3384.09  3422.80  3435.94
           -------------------------------------------------
          |                Property Printout                |
           -------------------------------------------------

    * Orbital Energies and Occupations

         #    Occupation            Energy/Eh            Energy/eV
      -------------------------------------------------------------
         1        2.0000           -0.7508639             -20.4320
       ...           ...                  ...                  ...
         6        2.0000           -0.5962462             -16.2247
         7        2.0000           -0.5865632             -15.9612
         8        2.0000           -0.5800281             -15.7834
         9        2.0000           -0.5649340             -15.3726
        10        2.0000           -0.5213732             -14.1873
        11        2.0000           -0.5130773             -13.9615
        12        2.0000           -0.5048791             -13.7385
        13        2.0000           -0.4870338             -13.2529
        14        2.0000           -0.4804809             -13.0745
        15        2.0000           -0.4789971             -13.0342
        16        2.0000           -0.4614414             -12.5565
        17        2.0000           -0.4226354             -11.5005
        18        2.0000           -0.3742770             -10.1846 (HOMO)
        19                         -0.2397056              -6.5227 (LUMO)
        20                          0.0324462               0.8829
        21                          0.0642692               1.7489
        22                          0.0863023               2.3484
        23                          0.1275380               3.4705
        24                          0.1369413               3.7264
        25                          0.1635788               4.4512
        26                          0.1910719               5.1993
        27                          0.2202848               5.9943
        28                          0.2284524               6.2165
        29                          0.2423314               6.5942
       ...                                ...                  ...
        31                          0.6422970              17.4778
      -------------------------------------------------------------
                  HL-Gap            0.1345714 Eh            3.6619 eV
             Fermi-level           -0.3069913 Eh           -8.3537 eV

     #   Z          covCN         q      C6AA      α(0)
     1   6 C        3.756    -0.113    22.718     6.796
     2   6 C        3.782     0.033    20.046     6.378
     3   6 C        2.698     0.359    20.915     7.485
     4   8 O        0.856    -0.403    21.733     6.250
     5   8 O        1.659    -0.375    20.364     6.092
     6   7 N        2.633    -0.344    28.854     7.978
     7   1 H        0.925     0.049     2.336     2.390
     8   1 H        0.925     0.047     2.361     2.403
     9   1 H        0.925     0.047     2.356     2.400
    10   1 H        0.924     0.060     2.202     2.321
    11   1 H        0.804     0.333     0.631     1.247
    12   1 H        0.860     0.160     1.338     1.812
    13   1 H        0.860     0.149     1.410     1.860

 Mol. C6AA /au·bohr⁶  :       1404.828721
 Mol. C8AA /au·bohr⁸  :      29713.048972
 Mol. α(0) /au        :         55.412515


Wiberg/Mayer (AO) data.
largest (>0.10) Wiberg bond orders for each atom

 ---------------------------------------------------------------------------
     #   Z sym  total        # sym  WBO       # sym  WBO       # sym  WBO
 ---------------------------------------------------------------------------
     1   6 C    3.994 --     8 H    0.987     9 H    0.985     7 H    0.982
                             2 C    0.967
     2   6 C    3.988 --     6 N    1.027     1 C    0.967    10 H    0.956
                             3 C    0.953
     3   6 C    3.910 --     4 O    1.771     5 O    1.138     2 C    0.953
     4   8 O    2.048 --     3 C    1.771     5 O    0.174
     5   8 O    2.203 --     3 C    1.138    11 H    0.864     4 O    0.174
     6   7 N    3.008 --     2 C    1.027    13 H    0.962    12 H    0.956
     7   1 H    0.998 --     1 C    0.982
     8   1 H    0.998 --     1 C    0.987
     9   1 H    0.998 --     1 C    0.985
    10   1 H    0.996 --     2 C    0.956
    11   1 H    0.889 --     5 O    0.864
    12   1 H    0.975 --     6 N    0.956
    13   1 H    0.978 --     6 N    0.962
 ---------------------------------------------------------------------------

Topologies differ in total number of bonds
Writing topology from bond orders to xtbtopo.mol

molecular dipole:
                 x           y           z       tot (Debye)
 q only:       -0.185      -0.668       0.108
   full:       -0.154      -0.840      -0.189       2.225
molecular quadrupole (traceless):
                xx          xy          yy          xz          yz          zz
 q only:        5.732      -1.780      -3.112       1.855       1.140      -2.620
  q+dip:        8.351      -1.085      -5.103       2.795       0.414      -3.248
   full:        8.234      -1.313      -4.880       2.975       0.958      -3.354

           -------------------------------------------------
          |                Geometry Summary                 |
           -------------------------------------------------

      molecular mass/u    :       89.0933060
   center of mass at/Å    :        0.0000010       0.0000025       0.0000004
  moments of inertia/u·Å² :        0.9842862E+02   0.1686111E+03   0.2101825E+03
rotational constants/cm⁻¹ :        0.1712676E+00   0.9997939E-01   0.8020473E-01

 * 10 selected distances

     #   Z          #   Z                                           value/Å
     3   6 C        4   8 O                                       1.2010064
     3   6 C        5   8 O                                       1.3354725
     2   6 C        6   7 N                                       1.4486791 (max)
     1   6 C        7   1 H                                       1.0880966
     1   6 C        8   1 H                                       1.0888120
     1   6 C        9   1 H                                       1.0868671
     2   6 C       10   1 H                                       1.0959719
     5   8 O       11   1 H                                       0.9710027 (min)
     6   7 N       12   1 H                                       1.0154734
     6   7 N       13   1 H                                       1.0136150

 * 5 distinct bonds (by element types)

   Z      Z             #   av. dist./Å        max./Å        min./Å
   1 H    6 C           4     1.0899369     1.0959719     1.0868671
   1 H    7 N           2     1.0145442     1.0154734     1.0136150
   6 C    7 N           1     1.4486791     1.4486791     1.4486791
   1 H    8 O           1     0.9710027     0.9710027     0.9710027
   6 C    8 O           2     1.2682395     1.3354725     1.2010064

           -------------------------------------------------
          |               Frequency Printout                |
           -------------------------------------------------
 projected vibrational frequencies (cm⁻¹)
eigval :       -0.00     0.00     0.00     0.00     0.00     0.00
eigval :       52.43   207.31   210.45   217.78   284.79   350.38
eigval :      485.23   606.95   626.97   723.48   814.93   938.46
eigval :      946.66  1019.65  1068.93  1105.92  1139.98  1189.10
eigval :     1218.90  1271.85  1336.99  1393.28  1488.70  1490.27
eigval :     1545.78  1794.86  2929.49  3026.95  3029.50  3043.69
eigval :     3384.09  3422.80  3435.94
 reduced masses (amu)
   1: 12.86   2: 11.46   3: 13.09   4: 12.85   5: 13.64   6: 11.35   7: 12.98   8:  7.43
   9:  3.26  10:  4.91  11: 10.31  12: 10.61  13: 10.92  14:  6.04  15:  9.37  16: 10.43
  17:  9.17  18:  6.54  19:  4.24  20:  3.98  21:  9.38  22:  4.49  23:  8.49  24:  7.94
  25:  7.51  26:  3.67  27:  6.48  28:  3.01  29:  1.61  30:  1.58  31:  2.10  32: 13.25
  33:  1.74  34:  1.95  35:  1.54  36:  1.67  37:  1.54  38:  2.04  39:  1.85
 IR intensities (km·mol⁻¹)
   1:  0.09   2:  0.46   3:  1.26   4:  0.90   5:  0.14   6:  0.24   7:  3.12   8: 20.14
   9:  6.23  10: 22.00  11:  2.99  12:  1.83  13: 26.44  14: 68.90  15: 41.57  16:127.44
  17: 26.36  18:147.00  19: 42.21  20:  6.00  21: 43.34  22:102.65  23:202.17  24:  1.90
  25: 89.51  26: 16.40  27: 28.73  28:  3.86  29:  3.58  30:  4.53  31: 48.01  32:438.24
  33: 27.27  34: 29.13  35: 21.91  36: 18.48  37:  6.95  38:  1.91  39: 30.05
 Raman intensities (amu)
   1:  0.00   2:  0.00   3:  0.00   4:  0.00   5:  0.00   6:  0.00   7:  0.00   8:  0.00
   9:  0.00  10:  0.00  11:  0.00  12:  0.00  13:  0.00  14:  0.00  15:  0.00  16:  0.00
  17:  0.00  18:  0.00  19:  0.00  20:  0.00  21:  0.00  22:  0.00  23:  0.00  24:  0.00
  25:  0.00  26:  0.00  27:  0.00  28:  0.00  29:  0.00  30:  0.00  31:  0.00  32:  0.00
  33:  0.00  34:  0.00  35:  0.00  36:  0.00  37:  0.00  38:  0.00  39:  0.00
 output can be read by thermo (or use thermo option).
 writing <g98.out> molden fake output.
 recommended (thermochemical) frequency scaling factor: 1.0
           -------------------------------------------------
          |             Thermodynamic Functions             |
           -------------------------------------------------

Molecule has no symmetry elements
It seems to be the C1 point group
c1  symmetry found (for desy threshold:  0.10E+00) used in thermo

          ...................................................
          :                      SETUP                      :
          :.................................................:
          :  # frequencies                          33      :
          :  # imaginary freq.                       0      :
          :  linear?                             false      :
          :  only rotor calc.                    false      :
          :  symmetry                               c1      :
          :  rotational number                       1      :
          :  scaling factor                  1.0000000      :
          :  rotor cutoff                   50.0000000 cm⁻¹ :
          :  imag. cutoff                  -20.0000000 cm⁻¹ :
          :.................................................:

    mode    ω/cm⁻¹     T·S(HO)/kcal·mol⁻¹    T·S(FR)/kcal·mol⁻¹   T·S(vib)
   ------------------------------------------------------------------------
       1     52.43    -1.40838 ( 54.72%)    -1.04192 ( 45.28%)    -1.24246
       2    207.31    -0.61635 ( 99.66%)    -0.63509 (  0.34%)    -0.61641
       3    210.45    -0.60815 ( 99.68%)    -0.63063 (  0.32%)    -0.60822
       4    217.78    -0.58959 ( 99.72%)    -0.62050 (  0.28%)    -0.58968
       5    284.79    -0.44864 ( 99.91%)    -0.54106 (  0.09%)    -0.44872
   ------------------------------------------------------------------------

   temp. (K)  partition function   enthalpy   heat capacity  entropy
                                   cal/mol     cal/K/mol   cal/K/mol   J/K/mol
 298.15  VIB   38.3                 2667.519     18.082     15.636
         ROT  0.143E+06              888.752      2.981     26.566
         INT  0.546E+07             3556.271     21.063     42.202
         TR   0.814E+27             1481.254      4.968     39.356
         TOT                        5037.5253    26.0313    81.5578   341.2379

       T/K    H(0)-H(T)+PV         H(T)/Eh          T*S/Eh         G(T)/Eh
   ------------------------------------------------------------------------
    298.15    0.802781E-02    0.112373E+00    0.387508E-01    0.736227E-01
   ------------------------------------------------------------------------

         :::::::::::::::::::::::::::::::::::::::::::::::::::::
         ::                  THERMODYNAMIC                  ::
         :::::::::::::::::::::::::::::::::::::::::::::::::::::
         :: total free energy         -20.969258177274 Eh   ::
         ::.................................................::
         :: total energy              -21.042880925311 Eh   ::
         :: zero point energy           0.104345690704 Eh   ::
         :: G(RRHO) w/o ZPVE           -0.030722942666 Eh   ::
         :: G(RRHO) contrib.            0.073622748038 Eh   ::
         :::::::::::::::::::::::::::::::::::::::::::::::::::::

optimized geometry written to: xtbopt.xyz


           -------------------------------------------------
          | TOTAL ENERGY              -21.042880925311 Eh   |
          | TOTAL ENTHALPY            -20.930507427061 Eh   |
          | TOTAL FREE ENERGY         -20.969258177274 Eh   |
          | GRADIENT NORM               0.000017458963 Eh/α |
          | HOMO-LUMO GAP               3.661873284677 eV   |
           -------------------------------------------------

------------------------------------------------------------------------
 * finished run on 2025/07/30 at 12:34:40.275     
------------------------------------------------------------------------
 total:
 * wall-time:     0 d,  0 h,  0 min,  0.133 sec
 *  cpu-time:     0 d,  0 h,  0 min,  0.974 sec
 * ratio c/w:     7.338 speedup
 SCF:
 * wall-time:     0 d,  0 h,  0 min,  0.008 sec
 *  cpu-time:     0 d,  0 h,  0 min,  0.057 sec
 * ratio c/w:     7.003 speedup
 ANC optimizer:
 * wall-time:     0 d,  0 h,  0 min,  0.014 sec
 *  cpu-time:     0 d,  0 h,  0 min,  0.107 sec
 * ratio c/w:     7.482 speedup
 analytical hessian:
 * wall-time:     0 d,  0 h,  0 min,  0.096 sec
 *  cpu-time:     0 d,  0 h,  0 min,  0.717 sec
 * ratio c/w:     7.466 speedup

