13
 energy: -21.042880925311 gnorm: 0.000017431031 xtb: 6.6.0 (8843059)
C           -1.20128985922624       -1.22768592561401       -0.69644566400794
C           -0.72226989675329       -0.23424855331985        0.38095493004363
C            0.70548881944371        0.13793335468177        0.02784929663662
O            1.02146119992537        1.06019447603396       -0.67358641595574
O            1.59093214362646       -0.71776237920747        0.54482269930735
N           -1.51164322959343        0.97688974267800        0.47425257167133
H           -2.22502871006592       -1.53043119816521       -0.48606956208961
H           -1.16661383084959       -0.75860382103601       -1.67841860375206
H           -0.57023852066751       -2.11255224395301       -0.70455432243160
H           -0.72436510675815       -0.73372783972567        1.35649080911142
H            2.49248447905872       -0.47557256605952        0.27762712958921
H           -1.25253253743787        1.60961607559035       -0.27655043710791
H           -2.50006761000136        0.76768577554727        0.39260638705769
