13
 energy: -21.042880925311 gnorm: 0.000017496733 xtb: 6.6.0 (8843059)
C           -1.20128100000000       -1.22769100000000       -0.69645200000000
C           -0.72227000000000       -0.23425300000000        0.38095200000000
C            0.70548800000000        0.13793700000000        0.02785200000000
O            1.02145800000000        1.06020100000000       -0.67358100000000
O            1.59093400000000       -0.71775500000000        0.54482700000000
N           -1.51165000000000        0.97688100000000        0.47424900000000
H           -2.22501900000000       -1.53044200000000       -0.48608000000000
H           -1.16660400000000       -0.75860700000000       -1.67842400000000
H           -0.57022500000000       -2.11255400000000       -0.70456000000000
H           -0.72436600000000       -0.73373400000000        1.35648700000000
H            2.49248600000000       -0.47556000000000        0.27763500000000
H           -1.25254000000000        1.60961000000000       -0.27655200000000
H           -2.50007300000000        0.76767200000000        0.39259900000000
