 Entering Gaussian System
 *********************************************
 Gaussian 98:
 frequency output generated by the xtb code
 *********************************************
                         Standard orientation:
 --------------------------------------------------------------------
  Center     Atomic     Atomic              Coordinates (Angstroms)
  Number     Number      Type              X           Y           Z
 --------------------------------------------------------------------
    1          6             0       -0.801954    2.025298    0.604511
    2          6             0       -2.062083    1.270100    0.182033
    3          6             0       -1.722036   -0.044245   -0.529955
    4          6             0       -0.372636   -0.621961   -0.036334
    5          8             0       -0.131396   -1.772632   -0.774728
    6          8             0       -0.459933   -0.906025    1.321567
    7          7             0       -2.803875   -0.990337   -0.361628
    8          6             0        0.344224    1.746545   -0.364946
    9          7             0        0.705709    0.341962   -0.298073
   10          6             0        1.976983   -0.072454   -0.017606
   11          7             0        2.995054    0.809550   -0.326902
   12          7             0        2.154836   -1.227566    0.513284
   13          1             0       -0.994620    3.097829    0.644108
   14          1             0       -0.491562    1.694056    1.596525
   15          1             0       -2.668952    1.875685   -0.490623
   16          1             0       -2.665531    1.039697    1.059301
   17          1             0       -1.597145    0.123487   -1.605012
   18          1             0        0.399115   -1.287254    1.574242
   19          1             0       -2.581404   -1.837164   -0.875823
   20          1             0       -2.858933   -1.245719    0.620649
   21          1             0        0.044510    2.005629   -1.388305
   22          1             0        1.209851    2.348571   -0.083229
   23          1             0        3.921601    0.412532   -0.299825
   24          1             0        2.843185    1.443098   -1.094428
   25          1             0        3.128802   -1.483876    0.627956
   26          1             0        0.719040   -2.127663   -0.454324
 --------------------------------------------------------------------
     1 basis functions        1 primitive gaussians
     1 alpha electrons        1 beta electrons
 
 Harmonic frequencies (cm**-1), IR intensities (km*mol⁻¹),
 Raman scattering activities (A**4/amu), Raman depolarization ratios,
 reduced masses (AMU), force constants (mDyne/A) and normal coordinates:
                      1                      2                      3
                        a                      a                      a 
 Frequencies --    73.5747                84.3359               108.9653
 Red. masses --    10.4589                 9.8108                12.4649
 Frc consts  --     0.0000                 0.0000                 0.0000
 IR Inten    --     0.7037                 1.6082                 3.5382
 Raman Activ --     0.0000                 0.0000                 0.0000
 Depolar     --     0.0000                 0.0000                 0.0000
 Atom AN      X      Y      Z        X      Y      Z        X      Y      Z
   1   6    -0.13  -0.11   0.19    -0.06  -0.04  -0.03    -0.01   0.07  -0.13
   2   6    -0.06   0.05  -0.28    -0.04   0.16  -0.41    -0.01  -0.06   0.10
   3   6     0.05  -0.02  -0.10    -0.06  -0.08  -0.00     0.01   0.00   0.02
   4   6    -0.00   0.03   0.12     0.01   0.01  -0.06    -0.01   0.00   0.06
   5   8     0.05  -0.06   0.31     0.00   0.07  -0.16    -0.08  -0.11   0.26
   6   8    -0.12   0.19   0.17     0.05  -0.08  -0.08     0.02   0.23   0.14
   7   7     0.04  -0.01  -0.22    -0.01  -0.05   0.54     0.01  -0.01  -0.14
   8   6     0.06   0.05   0.36     0.05   0.03   0.08    -0.03  -0.03  -0.12
   9   7    -0.00   0.02   0.13     0.02   0.02  -0.00     0.01  -0.02  -0.02
  10   6     0.04  -0.04  -0.13     0.01  -0.01   0.01     0.01  -0.03  -0.09
  11   7    -0.02  -0.05  -0.33     0.02   0.07   0.28     0.02   0.17   0.44
  12   7     0.12  -0.06  -0.21    -0.01  -0.11  -0.20     0.05  -0.25  -0.58
  13   1    -0.02  -0.03   0.11     0.01  -0.01   0.04    -0.01   0.02  -0.09
  14   1    -0.11  -0.10   0.05    -0.07  -0.08  -0.01     0.02   0.08  -0.02
  15   1     0.08   0.04  -0.15     0.12   0.06  -0.23    -0.06  -0.04   0.07
  16   1    -0.13   0.05  -0.15    -0.14   0.15  -0.18     0.05  -0.04   0.06
  17   1     0.07  -0.03  -0.03    -0.06  -0.13  -0.02     0.02   0.03   0.01
  18   1    -0.05   0.03   0.07     0.01  -0.04  -0.04    -0.02   0.00   0.04
  19   1     0.04  -0.01  -0.03    -0.03  -0.05   0.20     0.02   0.00  -0.04
  20   1    -0.04   0.02  -0.06     0.07   0.06   0.17    -0.03  -0.02  -0.04
  21   1     0.08   0.09   0.10     0.05   0.03   0.02    -0.01  -0.04  -0.04
  22   1     0.01  -0.02   0.19     0.01  -0.00   0.07    -0.02   0.01  -0.05
  23   1    -0.00  -0.02  -0.16     0.01   0.02   0.08     0.01   0.04   0.12
  24   1    -0.06   0.01  -0.06     0.03   0.05   0.10     0.04   0.11   0.17
  25   1     0.04  -0.03  -0.12    -0.00  -0.03  -0.04     0.02  -0.06  -0.15
  26   1     0.03   0.02   0.08     0.01   0.02  -0.06     0.02   0.02   0.03
                      4                      5                      6
                        a                      a                      a 
 Frequencies --   137.9945               193.2490               243.8243
 Red. masses --    11.4794                11.7295                12.9531
 Frc consts  --     0.0000                 0.0000                 0.0000
 IR Inten    --     4.7458                 6.6663                 1.0412
 Raman Activ --     0.0000                 0.0000                 0.0000
 Depolar     --     0.0000                 0.0000                 0.0000
 Atom AN      X      Y      Z        X      Y      Z        X      Y      Z
   1   6     0.14  -0.32   0.28     0.15  -0.05   0.01     0.14  -0.06   0.06
   2   6     0.06  -0.02   0.02     0.11   0.11  -0.10     0.12  -0.07   0.12
   3   6    -0.04  -0.01  -0.07     0.02   0.01   0.02    -0.04   0.00  -0.14
   4   6    -0.00   0.01  -0.14    -0.04  -0.17   0.07    -0.04   0.01  -0.18
   5   8    -0.14  -0.18   0.12    -0.07  -0.19   0.05     0.24  -0.06   0.04
   6   8     0.15   0.37  -0.07    -0.01  -0.32   0.06    -0.70   0.16  -0.19
   7   7    -0.03  -0.01  -0.01    -0.27   0.34  -0.09     0.04  -0.03   0.25
   8   6    -0.01  -0.03   0.01     0.03  -0.16  -0.07     0.06  -0.04  -0.02
   9   7     0.01  -0.07  -0.51    -0.04  -0.18   0.06     0.03  -0.04   0.06
  10   6    -0.03   0.03  -0.05     0.04   0.05   0.02     0.05  -0.00  -0.00
  11   7    -0.01   0.07   0.15    -0.21   0.39   0.01    -0.03   0.11  -0.03
  12   7    -0.10   0.12   0.13     0.33   0.11   0.01     0.14  -0.00  -0.05
  13   1     0.07  -0.09   0.22     0.08  -0.01   0.03     0.03  -0.02   0.02
  14   1     0.06  -0.23   0.03     0.04  -0.05  -0.01     0.06  -0.02   0.01
  15   1     0.08   0.05  -0.00     0.09   0.04  -0.07    -0.01   0.01   0.10
  16   1    -0.04  -0.00  -0.03    -0.02   0.08  -0.05     0.08  -0.07   0.05
  17   1    -0.03   0.00  -0.02     0.05  -0.02   0.01    -0.09   0.01  -0.04
  18   1     0.04   0.09  -0.02     0.00  -0.07   0.01    -0.24   0.01   0.08
  19   1    -0.02   0.00  -0.01    -0.13   0.07  -0.01    -0.05   0.00   0.02
  20   1     0.01  -0.00  -0.00    -0.14   0.11  -0.02     0.15  -0.03   0.07
  21   1    -0.06   0.07   0.04    -0.02  -0.07  -0.02    -0.00  -0.03  -0.00
  22   1     0.01  -0.03   0.00     0.02  -0.05  -0.06     0.02  -0.01  -0.03
  23   1     0.00   0.04   0.12    -0.02   0.18   0.06     0.00   0.05   0.00
  24   1     0.04   0.00   0.02    -0.08  -0.00  -0.08    -0.02  -0.01  -0.04
  25   1    -0.03   0.05   0.11     0.10   0.09   0.00     0.04   0.01  -0.02
  26   1    -0.04  -0.04   0.03    -0.01  -0.04  -0.01     0.07   0.05   0.06
                      7                      8                      9
                        a                      a                      a 
 Frequencies --   280.3293               297.7963               322.3554
 Red. masses --     7.5934                11.5634                 6.3988
 Frc consts  --     0.0000                 0.0000                 0.0000
 IR Inten    --     2.0257                 1.9857                35.6196
 Raman Activ --     0.0000                 0.0000                 0.0000
 Depolar     --     0.0000                 0.0000                 0.0000
 Atom AN      X      Y      Z        X      Y      Z        X      Y      Z
   1   6    -0.07   0.21  -0.17    -0.09   0.06  -0.02    -0.16  -0.08  -0.04
   2   6    -0.00  -0.07   0.05     0.04  -0.17   0.02    -0.19  -0.01  -0.03
   3   6    -0.02  -0.02  -0.03    -0.02  -0.16  -0.04    -0.08   0.02  -0.01
   4   6    -0.03  -0.03  -0.10     0.05  -0.12  -0.07    -0.01   0.05  -0.01
   5   8    -0.24  -0.14  -0.05     0.51  -0.13   0.09    -0.21   0.03  -0.03
   6   8     0.06   0.08  -0.08     0.14   0.02  -0.05     0.03   0.09  -0.00
   7   7     0.02  -0.07   0.08    -0.42   0.32   0.07    -0.14   0.10   0.10
   8   6     0.32   0.02   0.35     0.01   0.11   0.10    -0.10  -0.10  -0.01
   9   7    -0.00  -0.12  -0.18    -0.05   0.09  -0.11     0.13  -0.05   0.06
  10   6    -0.00  -0.07  -0.02    -0.07   0.04  -0.05     0.19   0.01   0.05
  11   7    -0.17   0.15  -0.00     0.07  -0.13   0.03     0.27  -0.07   0.00
  12   7     0.11   0.01   0.08    -0.15   0.02  -0.04     0.30   0.03   0.06
  13   1    -0.04   0.06  -0.23    -0.07   0.01  -0.06    -0.02  -0.02  -0.02
  14   1    -0.09   0.23   0.03    -0.03   0.07   0.02    -0.06  -0.02  -0.01
  15   1    -0.09  -0.06   0.06    -0.04  -0.07   0.03    -0.05  -0.00  -0.02
  16   1     0.08  -0.06   0.06     0.05  -0.08   0.02    -0.06  -0.02  -0.02
  17   1    -0.03   0.01  -0.01    -0.01  -0.05  -0.01    -0.03   0.01  -0.00
  18   1     0.03   0.04  -0.02     0.05   0.03  -0.01     0.01   0.04  -0.00
  19   1    -0.03   0.01  -0.03    -0.30   0.07  -0.03    -0.33   0.20  -0.37
  20   1     0.08  -0.06   0.01    -0.10   0.06   0.01     0.30  -0.33  -0.05
  21   1     0.28   0.16   0.08     0.05   0.09   0.03    -0.04  -0.07  -0.01
  22   1     0.10  -0.10   0.32     0.00   0.01   0.09    -0.06   0.02  -0.02
  23   1    -0.01   0.12   0.10    -0.00  -0.09  -0.04     0.06  -0.06  -0.11
  24   1    -0.04  -0.07  -0.09     0.04   0.05   0.08     0.04   0.10   0.10
  25   1     0.03   0.03   0.04    -0.05  -0.01  -0.00     0.09   0.03   0.00
  26   1    -0.08  -0.07  -0.02     0.15   0.05   0.08    -0.06  -0.03  -0.04
                     10                     11                     12
                        a                      a                      a 
 Frequencies --   326.2213               373.2058               403.0291
 Red. masses --     6.8578                10.3783                 6.0759
 Frc consts  --     0.0000                 0.0000                 0.0000
 IR Inten    --    24.5443                 6.2642                21.0613
 Raman Activ --     0.0000                 0.0000                 0.0000
 Depolar     --     0.0000                 0.0000                 0.0000
 Atom AN      X      Y      Z        X      Y      Z        X      Y      Z
   1   6     0.13   0.09   0.04     0.04  -0.16  -0.06    -0.03  -0.00   0.00
   2   6     0.17   0.10  -0.08    -0.07  -0.04   0.00    -0.04  -0.02  -0.00
   3   6     0.14   0.01   0.01    -0.15  -0.06   0.04    -0.06  -0.06   0.06
   4   6     0.02  -0.05   0.06    -0.03   0.11   0.04    -0.02  -0.00   0.07
   5   8     0.12  -0.06   0.11     0.22   0.36  -0.19    -0.10  -0.03   0.11
   6   8     0.05  -0.15   0.07     0.16   0.32   0.10    -0.14  -0.21   0.03
   7   7     0.20  -0.03   0.06    -0.20  -0.07  -0.05    -0.09  -0.07  -0.02
   8   6     0.02   0.08  -0.05     0.08  -0.07  -0.05     0.02   0.10   0.02
   9   7    -0.14   0.05   0.01     0.05  -0.02   0.15     0.02   0.10  -0.02
  10   6    -0.20   0.00  -0.02    -0.02  -0.18   0.08     0.08   0.16  -0.16
  11   7    -0.28   0.07  -0.01    -0.25   0.03  -0.03     0.37  -0.01  -0.02
  12   7    -0.32  -0.04  -0.07     0.12  -0.23   0.02    -0.07   0.18  -0.11
  13   1     0.03   0.02   0.04     0.02  -0.05   0.03    -0.03  -0.00   0.02
  14   1     0.05  -0.00   0.00     0.02  -0.08  -0.03    -0.01  -0.01  -0.00
  15   1     0.10   0.03  -0.07    -0.01   0.00   0.01    -0.00  -0.01  -0.01
  16   1    -0.00   0.05  -0.05    -0.01   0.01   0.01    -0.02   0.01   0.00
  17   1     0.05   0.00   0.00    -0.04  -0.02   0.01    -0.01  -0.02   0.02
  18   1     0.02  -0.04  -0.00     0.05   0.10   0.01    -0.05  -0.07   0.01
  19   1    -0.16   0.16  -0.36    -0.08   0.00  -0.06    -0.03  -0.01  -0.03
  20   1     0.38  -0.35  -0.06    -0.06  -0.06  -0.03    -0.04  -0.04  -0.01
  21   1    -0.01   0.02  -0.01     0.03  -0.05  -0.02     0.02   0.05   0.01
  22   1     0.03  -0.00  -0.04     0.02  -0.01  -0.02     0.03  -0.00   0.00
  23   1    -0.06   0.06   0.09    -0.01   0.14   0.27     0.09  -0.00   0.48
  24   1    -0.06  -0.08  -0.09    -0.02  -0.28  -0.26     0.38  -0.31  -0.32
  25   1    -0.09  -0.04  -0.01     0.04  -0.05  -0.03    -0.03  -0.01  -0.04
  26   1     0.03  -0.00   0.05     0.06   0.10  -0.05    -0.02  -0.00   0.01
                     13                     14                     15
                        a                      a                      a 
 Frequencies --   407.0446               445.7962               484.9137
 Red. masses --     9.3624                10.3398                 8.4098
 Frc consts  --     0.0000                 0.0000                 0.0000
 IR Inten    --     2.2454                25.5152                10.8573
 Raman Activ --     0.0000                 0.0000                 0.0000
 Depolar     --     0.0000                 0.0000                 0.0000
 Atom AN      X      Y      Z        X      Y      Z        X      Y      Z
   1   6     0.28  -0.11  -0.14     0.05  -0.13  -0.01    -0.12  -0.27  -0.18
   2   6     0.14  -0.03  -0.02     0.22  -0.33  -0.09    -0.15  -0.17  -0.01
   3   6    -0.21  -0.19   0.12     0.17  -0.17  -0.22     0.19   0.07  -0.01
   4   6    -0.12   0.03   0.13     0.06  -0.02  -0.00     0.09   0.09   0.18
   5   8    -0.07   0.20  -0.01    -0.34  -0.01  -0.11    -0.03   0.23   0.05
   6   8    -0.10  -0.08   0.13     0.04   0.12   0.03    -0.09  -0.08   0.20
   7   7    -0.25  -0.31  -0.11    -0.03   0.13   0.07     0.15   0.28   0.09
   8   6     0.33   0.12  -0.07     0.04   0.09  -0.02     0.07  -0.06  -0.05
   9   7    -0.04   0.06  -0.02     0.06   0.15   0.37     0.09  -0.06  -0.23
  10   6    -0.02   0.10  -0.05     0.04   0.12   0.12     0.06  -0.02  -0.06
  11   7     0.08   0.05   0.04     0.04   0.15  -0.04    -0.03   0.07  -0.05
  12   7    -0.05   0.14  -0.01    -0.23   0.01  -0.06    -0.17  -0.01   0.02
  13   1     0.06  -0.04   0.04    -0.06  -0.05   0.04    -0.01  -0.08   0.01
  14   1     0.11  -0.09  -0.06     0.04  -0.05  -0.01    -0.03  -0.13  -0.07
  15   1     0.06   0.01  -0.01    -0.00  -0.09   0.04    -0.13  -0.08   0.05
  16   1     0.06   0.07   0.03     0.11  -0.18  -0.01     0.03  -0.12   0.03
  17   1    -0.04  -0.06   0.03     0.05  -0.09  -0.07     0.10   0.01   0.00
  18   1    -0.03  -0.04   0.02     0.07   0.17   0.03    -0.17  -0.38  -0.00
  19   1    -0.04  -0.04  -0.09    -0.13  -0.02   0.06    -0.05   0.05   0.03
  20   1    -0.10  -0.16  -0.05     0.01   0.10   0.04     0.07   0.09   0.03
  21   1     0.19   0.10  -0.03    -0.01  -0.03  -0.01     0.12   0.05  -0.03
  22   1     0.09  -0.01   0.09     0.00   0.05  -0.04    -0.02  -0.02   0.12
  23   1    -0.01  -0.09  -0.24    -0.00   0.01  -0.08     0.02   0.09   0.00
  24   1    -0.03   0.20   0.17    -0.04  -0.06  -0.08    -0.05   0.04   0.01
  25   1    -0.02   0.05   0.03    -0.08  -0.10  -0.06    -0.06  -0.03   0.10
  26   1     0.01   0.07  -0.05    -0.17  -0.17   0.00     0.11   0.16  -0.18
                     16                     17                     18
                        a                      a                      a 
 Frequencies --   506.4462               520.7785               531.9619
 Red. masses --    10.1081                 5.5411                 9.2123
 Frc consts  --     0.0000                 0.0000                 0.0000
 IR Inten    --     4.5614                68.7278                50.0213
 Raman Activ --     0.0000                 0.0000                 0.0000
 Depolar     --     0.0000                 0.0000                 0.0000
 Atom AN      X      Y      Z        X      Y      Z        X      Y      Z
   1   6     0.00  -0.16  -0.14     0.03   0.14   0.10    -0.03  -0.02  -0.03
   2   6    -0.19   0.05   0.04     0.12  -0.01  -0.02    -0.17   0.15   0.07
   3   6    -0.19   0.16  -0.15    -0.04  -0.08  -0.04    -0.07   0.05   0.19
   4   6    -0.05   0.18  -0.15    -0.00  -0.03  -0.09     0.08  -0.07  -0.03
   5   8     0.02  -0.09   0.39    -0.14  -0.18   0.07     0.13  -0.10  -0.06
   6   8     0.18  -0.23  -0.27     0.13   0.20  -0.08    -0.03   0.05  -0.05
   7   7    -0.01  -0.01   0.03    -0.09  -0.10  -0.03    -0.05  -0.04  -0.03
   8   6     0.13   0.17  -0.11    -0.05   0.09   0.03     0.03  -0.21   0.05
   9   7     0.09   0.16   0.14     0.02   0.07   0.04     0.20  -0.12  -0.03
  10   6     0.02  -0.03   0.14    -0.02   0.12   0.34     0.21   0.09   0.12
  11   7    -0.06   0.03  -0.01     0.02  -0.01  -0.04     0.19   0.37   0.02
  12   7     0.04  -0.11   0.01     0.06  -0.06  -0.04    -0.39  -0.06  -0.07
  13   1     0.02  -0.05   0.12    -0.03   0.03  -0.01     0.06   0.01  -0.07
  14   1     0.04  -0.18  -0.10     0.01   0.08   0.04    -0.04   0.03   0.01
  15   1    -0.13   0.04   0.11     0.06   0.01  -0.02     0.01   0.03  -0.04
  16   1     0.04  -0.03   0.07     0.01   0.01  -0.02    -0.09   0.12   0.01
  17   1    -0.09   0.07  -0.04    -0.04  -0.03  -0.02    -0.04   0.05   0.06
  18   1     0.06  -0.11  -0.18    -0.19  -0.53  -0.15    -0.00   0.06   0.04
  19   1     0.03  -0.01   0.03    -0.02  -0.03  -0.01     0.03   0.02  -0.04
  20   1     0.05   0.02   0.02    -0.03  -0.03  -0.01    -0.07  -0.05  -0.02
  21   1     0.11   0.05  -0.05    -0.08  -0.02   0.02     0.02  -0.06   0.01
  22   1     0.00   0.06   0.05     0.00   0.03  -0.07    -0.00  -0.05   0.02
  23   1    -0.01   0.02  -0.06    -0.02  -0.08  -0.10     0.01  -0.04  -0.33
  24   1    -0.08  -0.06  -0.05    -0.05  -0.15  -0.12    -0.12  -0.18  -0.21
  25   1     0.01  -0.04  -0.04     0.03   0.02  -0.01    -0.16  -0.20   0.07
  26   1    -0.07  -0.05   0.28     0.21   0.23  -0.33    -0.00  -0.04   0.05
                     19                     20                     21
                        a                      a                      a 
 Frequencies --   564.2267               590.1187               627.9177
 Red. masses --     5.8025                 7.9207                 9.6350
 Frc consts  --     0.0000                 0.0000                 0.0000
 IR Inten    --   128.3112                69.6675                28.8684
 Raman Activ --     0.0000                 0.0000                 0.0000
 Depolar     --     0.0000                 0.0000                 0.0000
 Atom AN      X      Y      Z        X      Y      Z        X      Y      Z
   1   6     0.03   0.02   0.01    -0.04   0.14   0.12    -0.08  -0.06  -0.15
   2   6    -0.00   0.06   0.02     0.11  -0.09  -0.03    -0.14   0.04   0.08
   3   6    -0.07  -0.01   0.04     0.06  -0.17   0.13     0.14  -0.04   0.37
   4   6     0.04  -0.02  -0.08     0.16   0.15   0.05     0.18  -0.15  -0.02
   5   8    -0.04  -0.14   0.04    -0.04   0.20   0.05    -0.02  -0.30  -0.19
   6   8     0.05   0.07  -0.10    -0.12  -0.09  -0.04    -0.15   0.10  -0.03
   7   7    -0.09  -0.07  -0.02    -0.13  -0.06  -0.03     0.06   0.08  -0.01
   8   6     0.02  -0.07   0.03    -0.09   0.21  -0.01     0.05   0.28  -0.14
   9   7     0.15   0.02   0.24     0.21   0.12  -0.31     0.02   0.14  -0.05
  10   6     0.21  -0.04  -0.14     0.15  -0.18   0.01    -0.05   0.09   0.30
  11   7    -0.03  -0.00  -0.26    -0.06   0.04  -0.01    -0.08  -0.14  -0.08
  12   7    -0.25  -0.00   0.12     0.05  -0.20   0.07     0.08  -0.06  -0.05
  13   1     0.02   0.01  -0.03    -0.08   0.03  -0.04    -0.02  -0.03   0.17
  14   1     0.00   0.03   0.01    -0.01   0.12   0.06     0.04  -0.19  -0.12
  15   1     0.03   0.03  -0.01     0.09  -0.04  -0.07    -0.01  -0.07  -0.07
  16   1    -0.02   0.05   0.00    -0.04   0.02  -0.05    -0.07   0.12   0.03
  17   1    -0.05   0.01   0.01     0.02  -0.08   0.03     0.05   0.04   0.11
  18   1    -0.02  -0.08  -0.06    -0.12  -0.21   0.02    -0.05   0.11   0.15
  19   1     0.00  -0.01  -0.01    -0.08  -0.01  -0.03     0.02   0.05  -0.04
  20   1    -0.04  -0.03  -0.01    -0.13  -0.04  -0.02    -0.10  -0.04  -0.03
  21   1    -0.01  -0.07   0.00    -0.14   0.02   0.02     0.14   0.12  -0.06
  22   1    -0.02   0.03  -0.02    -0.04   0.12  -0.10    -0.01   0.05   0.10
  23   1     0.14   0.42   0.33     0.04   0.15  -0.02     0.01   0.05   0.09
  24   1    -0.00   0.38   0.27    -0.14  -0.02  -0.00    -0.04   0.02   0.04
  25   1    -0.11  -0.18  -0.01     0.01  -0.05   0.05     0.04   0.00  -0.13
  26   1     0.08   0.08  -0.09    -0.24  -0.25   0.28    -0.01  -0.12  -0.09
                     22                     23                     24
                        a                      a                      a 
 Frequencies --   641.7641               662.7539               739.8127
 Red. masses --     6.6649                 9.2332                 4.3181
 Frc consts  --     0.0000                 0.0000                 0.0000
 IR Inten    --   256.2817                68.9978               106.7550
 Raman Activ --     0.0000                 0.0000                 0.0000
 Depolar     --     0.0000                 0.0000                 0.0000
 Atom AN      X      Y      Z        X      Y      Z        X      Y      Z
   1   6     0.00  -0.04  -0.06    -0.07   0.06   0.01     0.00  -0.06  -0.02
   2   6    -0.05   0.04   0.03    -0.03  -0.00   0.01     0.03  -0.06   0.01
   3   6     0.02   0.01   0.09     0.04  -0.03   0.08     0.06  -0.03   0.12
   4   6     0.03  -0.09  -0.03     0.06  -0.02  -0.03     0.02   0.08  -0.00
   5   8     0.11  -0.07  -0.22    -0.08  -0.18   0.03    -0.05   0.06   0.09
   6   8     0.10   0.30   0.01    -0.03  -0.00  -0.07    -0.00   0.00  -0.17
   7   7     0.04   0.02   0.00    -0.00   0.01  -0.01     0.03   0.04  -0.00
   8   6     0.02  -0.09   0.00    -0.01   0.27  -0.07     0.00  -0.06   0.01
   9   7    -0.12  -0.01   0.28     0.05   0.14   0.18     0.01  -0.00  -0.04
  10   6    -0.10  -0.04  -0.30     0.07  -0.35  -0.52    -0.06  -0.07  -0.15
  11   7    -0.00   0.02   0.08    -0.01   0.14   0.20    -0.05   0.05   0.15
  12   7    -0.01   0.16   0.04     0.03  -0.08   0.18     0.03   0.16   0.30
  13   1     0.03  -0.01   0.02    -0.05   0.01   0.11    -0.01  -0.02  -0.06
  14   1     0.01  -0.06  -0.03     0.02  -0.06  -0.03     0.00   0.03   0.01
  15   1    -0.01  -0.01  -0.01    -0.01  -0.03  -0.02     0.05  -0.03  -0.05
  16   1    -0.02   0.04   0.01    -0.02   0.02   0.00    -0.04   0.03  -0.02
  17   1     0.00   0.02   0.03     0.00   0.01   0.02     0.02  -0.00   0.03
  18   1    -0.20  -0.49  -0.09     0.02   0.10   0.03    -0.01  -0.01  -0.02
  19   1     0.00   0.01  -0.02    -0.00   0.01  -0.01    -0.01   0.02  -0.02
  20   1    -0.03  -0.00  -0.00    -0.03  -0.01  -0.01    -0.04  -0.01  -0.01
  21   1     0.07  -0.02  -0.02    -0.01   0.04  -0.03     0.00  -0.02  -0.00
  22   1     0.01  -0.05   0.05    -0.02   0.10  -0.03    -0.00  -0.02   0.00
  23   1    -0.04  -0.11  -0.01    -0.03  -0.05  -0.16    -0.05  -0.10  -0.08
  24   1     0.09   0.01   0.01    -0.05  -0.14  -0.09     0.02  -0.04  -0.02
  25   1     0.01   0.10   0.02     0.00   0.06   0.26     0.01  -0.34  -0.76
  26   1    -0.22  -0.31   0.28     0.16   0.15  -0.26     0.05   0.09  -0.04
                     25                     26                     27
                        a                      a                      a 
 Frequencies --   744.7045               858.6167               874.0332
 Red. masses --     9.8845                 5.8166                 9.2341
 Frc consts  --     0.0000                 0.0000                 0.0000
 IR Inten    --    15.3488                 5.9625                14.6523
 Raman Activ --     0.0000                 0.0000                 0.0000
 Depolar     --     0.0000                 0.0000                 0.0000
 Atom AN      X      Y      Z        X      Y      Z        X      Y      Z
   1   6    -0.01   0.19   0.05     0.01  -0.26   0.01     0.12  -0.17   0.02
   2   6    -0.06   0.16  -0.06     0.01  -0.21   0.21    -0.21   0.09   0.01
   3   6    -0.16   0.08  -0.31    -0.16   0.12  -0.10    -0.11   0.03  -0.15
   4   6    -0.07  -0.18   0.08    -0.21  -0.08  -0.02     0.47   0.16  -0.02
   5   8     0.10  -0.17  -0.24     0.04  -0.10  -0.10    -0.02  -0.15  -0.03
   6   8     0.02  -0.02   0.44     0.02  -0.01   0.21    -0.02  -0.09   0.16
   7   7    -0.07  -0.10   0.01     0.06   0.10  -0.02    -0.09  -0.05  -0.01
   8   6    -0.04   0.22  -0.03     0.04   0.18  -0.14     0.18  -0.05   0.09
   9   7     0.01  -0.02  -0.14    -0.01   0.08   0.00     0.22   0.18   0.00
  10   6     0.12  -0.08  -0.01     0.03  -0.02   0.01    -0.11   0.04  -0.06
  11   7     0.09   0.08   0.02     0.06   0.03  -0.01    -0.24  -0.13   0.06
  12   7     0.02  -0.06   0.15     0.03  -0.06   0.03    -0.05   0.16  -0.06
  13   1     0.02   0.05   0.19    -0.20  -0.09  -0.28     0.08  -0.03  -0.22
  14   1     0.01  -0.11  -0.04     0.12   0.26   0.07    -0.05   0.14   0.09
  15   1    -0.17   0.08   0.15     0.35   0.08  -0.14    -0.04   0.12   0.06
  16   1     0.14  -0.10   0.05    -0.31   0.14  -0.11    -0.04   0.00   0.01
  17   1    -0.03  -0.01  -0.09    -0.05   0.16  -0.01    -0.07   0.01  -0.05
  18   1    -0.02  -0.08   0.08     0.02  -0.03  -0.04    -0.05   0.00   0.20
  19   1     0.02  -0.04   0.04     0.08   0.01   0.04    -0.06  -0.03   0.02
  20   1     0.12   0.03   0.03     0.17   0.07   0.02     0.02   0.02   0.01
  21   1    -0.02   0.06  -0.00     0.05   0.09  -0.04    -0.13  -0.10   0.05
  22   1     0.01   0.04  -0.03    -0.03   0.08   0.04     0.02   0.09  -0.13
  23   1     0.05   0.08  -0.04     0.04   0.05  -0.01    -0.10  -0.11   0.02
  24   1    -0.04  -0.01  -0.01    -0.02  -0.01  -0.01    -0.01  -0.03   0.01
  25   1    -0.01  -0.20  -0.25     0.01  -0.03  -0.01     0.02   0.13  -0.06
  26   1    -0.02  -0.09  -0.02     0.00   0.01   0.04     0.00  -0.14  -0.17
                     28                     29                     30
                        a                      a                      a 
 Frequencies --   936.7328               945.2063              1001.3440
 Red. masses --     6.9227                 8.4958                 6.5512
 Frc consts  --     0.0000                 0.0000                 0.0000
 IR Inten    --    30.6602                13.8326                78.2293
 Raman Activ --     0.0000                 0.0000                 0.0000
 Depolar     --     0.0000                 0.0000                 0.0000
 Atom AN      X      Y      Z        X      Y      Z        X      Y      Z
   1   6    -0.06   0.15   0.01    -0.02  -0.28  -0.25    -0.19   0.21   0.08
   2   6     0.10   0.07   0.21     0.44   0.06  -0.18     0.13  -0.26  -0.06
   3   6     0.03  -0.07  -0.22    -0.15   0.18   0.14    -0.11   0.16   0.09
   4   6     0.36   0.13  -0.10     0.08   0.08  -0.07     0.17   0.14  -0.21
   5   8    -0.04   0.10   0.10     0.02  -0.08  -0.03    -0.00   0.00   0.01
   6   8     0.02  -0.05   0.04    -0.00  -0.03   0.09     0.02  -0.05   0.15
   7   7    -0.12  -0.11  -0.03    -0.06   0.04   0.03    -0.19   0.08  -0.00
   8   6    -0.33  -0.16  -0.16    -0.36  -0.02   0.19     0.20  -0.04  -0.06
   9   7    -0.07  -0.04   0.06    -0.00   0.10   0.00     0.03  -0.17  -0.00
  10   6     0.03  -0.02  -0.00     0.02  -0.02  -0.02     0.02   0.01   0.03
  11   7     0.01  -0.01   0.01     0.03  -0.03   0.03    -0.12   0.07  -0.05
  12   7    -0.01  -0.00   0.00     0.01  -0.01   0.01    -0.00   0.02  -0.01
  13   1     0.03   0.05   0.11    -0.03  -0.08  -0.14    -0.22   0.01   0.23
  14   1     0.20  -0.03  -0.08    -0.05  -0.02  -0.04    -0.05  -0.10  -0.03
  15   1     0.18   0.09  -0.02     0.00   0.04   0.08     0.05  -0.15  -0.11
  16   1    -0.11   0.08  -0.03     0.28   0.01   0.07    -0.05  -0.04  -0.06
  17   1    -0.04   0.04  -0.05    -0.14   0.01   0.02    -0.17   0.11   0.02
  18   1    -0.03   0.00   0.12    -0.01  -0.00   0.05    -0.02  -0.01   0.08
  19   1    -0.13  -0.09   0.05     0.27   0.11  -0.04     0.35   0.09   0.03
  20   1     0.06   0.06   0.02    -0.04  -0.13  -0.03     0.12  -0.10  -0.01
  21   1     0.30   0.14  -0.11    -0.06   0.06   0.05     0.05  -0.14  -0.05
  22   1    -0.10  -0.19   0.34    -0.17   0.04   0.16     0.11  -0.05  -0.13
  23   1     0.00  -0.00  -0.00     0.03   0.04  -0.00    -0.11  -0.18   0.03
  24   1    -0.01  -0.03  -0.02    -0.06  -0.06  -0.02     0.18   0.10   0.01
  25   1    -0.01  -0.01  -0.00     0.01   0.01  -0.00    -0.04  -0.09   0.05
  26   1    -0.01  -0.07  -0.09     0.01  -0.01  -0.01    -0.00   0.01   0.01
                     31                     32                     33
                        a                      a                      a 
 Frequencies --  1012.8738              1031.1657              1037.9531
 Red. masses --     7.2041                 6.3184                 5.7840
 Frc consts  --     0.0000                 0.0000                 0.0000
 IR Inten    --   152.5078                23.7949                10.7276
 Raman Activ --     0.0000                 0.0000                 0.0000
 Depolar     --     0.0000                 0.0000                 0.0000
 Atom AN      X      Y      Z        X      Y      Z        X      Y      Z
   1   6     0.00  -0.03   0.00    -0.06   0.14  -0.08    -0.02   0.04   0.28
   2   6    -0.01   0.03   0.01     0.06  -0.08   0.08    -0.07  -0.08  -0.17
   3   6     0.17   0.10   0.01    -0.01  -0.03  -0.01    -0.09   0.10   0.06
   4   6    -0.01  -0.14   0.30    -0.07  -0.15  -0.24     0.05   0.20   0.16
   5   8     0.02   0.04   0.02    -0.05   0.10   0.04     0.05  -0.13  -0.05
   6   8     0.01   0.07  -0.27     0.01  -0.03   0.15    -0.00   0.01  -0.07
   7   7    -0.48  -0.08  -0.06     0.03   0.01  -0.03     0.03   0.07   0.08
   8   6    -0.00  -0.01  -0.01     0.08  -0.12   0.10     0.09  -0.08  -0.28
   9   7     0.06   0.04  -0.00     0.12   0.03  -0.00    -0.12  -0.02   0.05
  10   6     0.01   0.02  -0.02     0.04   0.07  -0.10    -0.00   0.01  -0.02
  11   7    -0.00  -0.07   0.04     0.03  -0.29   0.18     0.13  -0.12   0.09
  12   7    -0.02   0.04  -0.02    -0.07   0.26  -0.09    -0.04   0.08  -0.04
  13   1     0.04  -0.00  -0.02     0.02   0.03   0.13    -0.09  -0.00  -0.02
  14   1    -0.00   0.01   0.01    -0.05  -0.13  -0.07     0.05   0.12   0.09
  15   1    -0.02  -0.01   0.00     0.03  -0.14  -0.11    -0.03   0.10   0.08
  16   1    -0.01  -0.03  -0.01    -0.03   0.13   0.03    -0.04  -0.31  -0.13
  17   1     0.29   0.05   0.04    -0.09   0.13   0.01    -0.06  -0.20  -0.02
  18   1    -0.02  -0.00   0.01     0.00  -0.00   0.02     0.00   0.00  -0.02
  19   1     0.33  -0.05   0.19    -0.04  -0.02   0.01     0.18   0.13  -0.08
  20   1     0.48  -0.02   0.05     0.05   0.05   0.01    -0.20  -0.15  -0.04
  21   1     0.00   0.01  -0.00    -0.02  -0.14   0.01     0.13   0.11  -0.07
  22   1    -0.03   0.03   0.02    -0.01   0.05  -0.06     0.09  -0.16   0.05
  23   1     0.03   0.06  -0.01     0.16   0.28  -0.05     0.15   0.24  -0.05
  24   1    -0.09  -0.05  -0.00    -0.43  -0.24  -0.00    -0.25  -0.12   0.00
  25   1     0.02   0.07  -0.03     0.03   0.20  -0.11     0.02   0.11  -0.07
  26   1    -0.01  -0.08  -0.06     0.00   0.09   0.08     0.01  -0.06  -0.06
                     34                     35                     36
                        a                      a                      a 
 Frequencies --  1068.4260              1083.1421              1085.5834
 Red. masses --     8.6841                10.1308                 8.4419
 Frc consts  --     0.0000                 0.0000                 0.0000
 IR Inten    --    15.0310               123.4726               102.5423
 Raman Activ --     0.0000                 0.0000                 0.0000
 Depolar     --     0.0000                 0.0000                 0.0000
 Atom AN      X      Y      Z        X      Y      Z        X      Y      Z
   1   6    -0.22   0.02   0.06     0.04   0.08  -0.10     0.12  -0.04   0.13
   2   6     0.16   0.11   0.05     0.03  -0.10   0.06    -0.13   0.04  -0.06
   3   6     0.04   0.08  -0.05     0.04  -0.05   0.01     0.36   0.02   0.12
   4   6    -0.20  -0.13   0.19    -0.12   0.64   0.21    -0.13   0.07  -0.43
   5   8     0.00  -0.04  -0.06     0.10  -0.36  -0.20    -0.08  -0.06  -0.08
   6   8    -0.04   0.03  -0.03    -0.10  -0.01   0.09    -0.02  -0.05   0.28
   7   7     0.03  -0.07   0.06    -0.03  -0.03  -0.04    -0.20  -0.07   0.02
   8   6     0.01  -0.05  -0.08    -0.05  -0.08   0.11    -0.07  -0.04  -0.13
   9   7     0.44  -0.02  -0.03    -0.05   0.00  -0.03     0.07   0.16   0.04
  10   6     0.16   0.10  -0.05     0.08   0.01  -0.00     0.05   0.01  -0.01
  11   7    -0.31  -0.14   0.05    -0.03  -0.06   0.04    -0.07  -0.02   0.01
  12   7     0.00   0.19  -0.10     0.04   0.07  -0.06     0.05   0.01   0.01
  13   1    -0.14  -0.01   0.06     0.07   0.02   0.07     0.28   0.04  -0.15
  14   1     0.07   0.02  -0.02    -0.00  -0.08  -0.05    -0.02   0.06   0.07
  15   1     0.09   0.16   0.09     0.03  -0.13  -0.09    -0.10  -0.08  -0.03
  16   1     0.00  -0.11  -0.05    -0.02   0.12   0.04    -0.04  -0.18  -0.08
  17   1     0.02  -0.10  -0.03     0.10   0.05   0.02     0.08  -0.04   0.02
  18   1     0.04   0.01  -0.14     0.11   0.03  -0.33     0.02  -0.01  -0.03
  19   1    -0.06   0.01  -0.05    -0.10  -0.06   0.04     0.08  -0.02   0.04
  20   1    -0.16  -0.05  -0.01     0.08   0.07   0.02     0.00  -0.09  -0.00
  21   1     0.17  -0.12  -0.10    -0.03  -0.04   0.03     0.03   0.16  -0.01
  22   1    -0.17   0.17   0.13    -0.00  -0.01  -0.02    -0.04  -0.04   0.11
  23   1    -0.16  -0.21   0.07     0.00   0.00   0.00    -0.04  -0.07   0.01
  24   1     0.01  -0.04   0.00    -0.05  -0.04   0.00     0.02  -0.01  -0.01
  25   1    -0.05  -0.07   0.06    -0.04  -0.11   0.05    -0.02  -0.09   0.04
  26   1     0.00   0.05   0.06     0.01  -0.05  -0.03     0.02   0.26   0.24
                     37                     38                     39
                        a                      a                      a 
 Frequencies --  1120.1716              1135.0507              1157.0310
 Red. masses --     7.1836                 7.4766                 6.3408
 Frc consts  --     0.0000                 0.0000                 0.0000
 IR Inten    --    27.3980                56.5953                24.3807
 Raman Activ --     0.0000                 0.0000                 0.0000
 Depolar     --     0.0000                 0.0000                 0.0000
 Atom AN      X      Y      Z        X      Y      Z        X      Y      Z
   1   6     0.29   0.20  -0.07     0.14  -0.06   0.02    -0.09  -0.00   0.28
   2   6    -0.19  -0.24   0.00    -0.10   0.00  -0.10     0.14   0.00  -0.12
   3   6    -0.26  -0.17  -0.05    -0.10  -0.06   0.05    -0.25  -0.11   0.06
   4   6    -0.04  -0.13   0.12     0.13  -0.05  -0.02    -0.05  -0.08   0.08
   5   8     0.01   0.04   0.03    -0.03   0.07   0.02     0.02   0.01   0.02
   6   8    -0.01   0.02  -0.05     0.04   0.02  -0.08    -0.03   0.01   0.00
   7   7     0.12   0.24   0.00     0.04   0.04  -0.04     0.12   0.06  -0.07
   8   6    -0.19  -0.02   0.13    -0.07   0.21  -0.02     0.01  -0.17  -0.33
   9   7     0.15   0.11  -0.03    -0.19  -0.27   0.08     0.19   0.21   0.03
  10   6     0.07   0.02  -0.01     0.26   0.10  -0.02     0.05   0.01  -0.00
  11   7    -0.09  -0.02   0.00    -0.15  -0.20   0.10    -0.09  -0.01   0.00
  12   7     0.02   0.01  -0.01     0.15   0.28  -0.13    -0.00  -0.02   0.01
  13   1     0.38   0.11   0.02    -0.13  -0.04  -0.04     0.08   0.02  -0.06
  14   1     0.17  -0.04  -0.08     0.04   0.07   0.03    -0.31  -0.00   0.16
  15   1     0.00  -0.13  -0.10    -0.07   0.02   0.03    -0.15  -0.23  -0.07
  16   1    -0.15  -0.06  -0.07     0.07   0.08   0.06     0.17   0.19   0.12
  17   1    -0.14  -0.17  -0.05     0.05   0.02   0.02    -0.05   0.20   0.05
  18   1     0.01  -0.00  -0.03    -0.04  -0.02   0.10     0.02   0.01  -0.08
  19   1     0.29   0.15  -0.04    -0.03  -0.01   0.01    -0.08  -0.03   0.02
  20   1     0.03  -0.06  -0.03     0.08   0.06   0.01     0.14   0.13   0.02
  21   1     0.01   0.03   0.03    -0.10   0.17   0.05     0.02   0.29  -0.01
  22   1    -0.10   0.05   0.11     0.08  -0.07  -0.04     0.04  -0.17   0.09
  23   1    -0.06  -0.08   0.03    -0.04  -0.04   0.03    -0.05  -0.06   0.01
  24   1     0.03   0.00  -0.00    -0.17  -0.09   0.02     0.03   0.01   0.00
  25   1    -0.01  -0.05   0.03    -0.15  -0.47   0.22     0.01   0.02  -0.01
  26   1    -0.01  -0.07  -0.06    -0.01   0.05   0.07    -0.01  -0.09  -0.08
                     40                     41                     42
                        a                      a                      a 
 Frequencies --  1172.9341              1179.2351              1204.9124
 Red. masses --     5.1494                 7.2499                 5.3496
 Frc consts  --     0.0000                 0.0000                 0.0000
 IR Inten    --   155.7566               110.6350                64.4651
 Raman Activ --     0.0000                 0.0000                 0.0000
 Depolar     --     0.0000                 0.0000                 0.0000
 Atom AN      X      Y      Z        X      Y      Z        X      Y      Z
   1   6    -0.03   0.03   0.06    -0.20  -0.11   0.01    -0.23  -0.00  -0.14
   2   6     0.00   0.05  -0.03     0.02   0.29   0.21     0.19  -0.01   0.29
   3   6    -0.25  -0.28   0.10     0.09  -0.45  -0.06    -0.00   0.07  -0.18
   4   6    -0.04   0.18   0.01     0.01   0.03  -0.17    -0.01   0.01   0.17
   5   8    -0.09  -0.15  -0.16     0.02   0.07   0.07    -0.04  -0.06  -0.07
   6   8     0.11  -0.03  -0.07    -0.09   0.01   0.12     0.10  -0.01  -0.12
   7   7     0.11   0.15  -0.11    -0.00   0.21  -0.06    -0.00  -0.03   0.06
   8   6    -0.00  -0.10   0.01     0.13   0.02  -0.06     0.14  -0.05  -0.07
   9   7     0.07   0.07  -0.02    -0.10  -0.01  -0.00    -0.13   0.14  -0.00
  10   6    -0.03  -0.02   0.00    -0.01   0.00   0.00    -0.00   0.01   0.00
  11   7     0.01   0.03  -0.02     0.03  -0.00   0.01     0.00  -0.02   0.01
  12   7    -0.04  -0.04   0.02     0.04   0.02  -0.01     0.09   0.02  -0.01
  13   1    -0.13  -0.02   0.05    -0.03  -0.02  -0.04     0.33   0.07  -0.03
  14   1     0.11   0.04  -0.01    -0.11   0.01   0.03    -0.39  -0.17   0.01
  15   1    -0.01   0.10   0.08     0.02   0.10   0.07     0.17   0.02  -0.02
  16   1     0.08   0.06   0.06     0.04   0.14   0.10    -0.14  -0.06  -0.07
  17   1     0.21  -0.22   0.03    -0.09  -0.36  -0.07    -0.02  -0.10  -0.06
  18   1    -0.12  -0.03   0.39     0.08   0.01  -0.28    -0.10  -0.03   0.30
  19   1     0.02  -0.01   0.05     0.28   0.08   0.03     0.04   0.04  -0.04
  20   1     0.24   0.11   0.01     0.13  -0.08  -0.03    -0.12  -0.06  -0.01
  21   1     0.09  -0.11  -0.04     0.01  -0.07  -0.03    -0.13   0.13   0.06
  22   1    -0.03   0.01   0.04     0.01   0.04  -0.02     0.06  -0.03  -0.07
  23   1     0.00  -0.00  -0.00     0.02   0.02  -0.01     0.01   0.02  -0.00
  24   1     0.03   0.01  -0.00    -0.02  -0.01  -0.00    -0.03  -0.01   0.01
  25   1     0.03   0.12  -0.03    -0.02  -0.08   0.02    -0.05  -0.20   0.10
  26   1     0.03   0.35   0.31    -0.02  -0.14  -0.12     0.01   0.13   0.12
                     43                     44                     45
                        a                      a                      a 
 Frequencies --  1235.1920              1240.3869              1255.0058
 Red. masses --     5.1322                 6.5295                 5.0966
 Frc consts  --     0.0000                 0.0000                 0.0000
 IR Inten    --    75.6846                57.2640                57.1547
 Raman Activ --     0.0000                 0.0000                 0.0000
 Depolar     --     0.0000                 0.0000                 0.0000
 Atom AN      X      Y      Z        X      Y      Z        X      Y      Z
   1   6    -0.10   0.03   0.04    -0.05  -0.08   0.17    -0.05   0.06  -0.18
   2   6     0.09  -0.02  -0.12     0.08   0.03  -0.01     0.06  -0.05   0.02
   3   6    -0.18  -0.05   0.27    -0.03  -0.04  -0.01    -0.15  -0.09   0.21
   4   6     0.00  -0.05  -0.12     0.06   0.13   0.05     0.05   0.03  -0.11
   5   8     0.04   0.04   0.07     0.00  -0.01  -0.02     0.01   0.02   0.02
   6   8    -0.02   0.00   0.03     0.04   0.00  -0.05    -0.05   0.01   0.05
   7   7     0.07   0.00  -0.10     0.01   0.01  -0.02     0.05   0.03  -0.08
   8   6     0.10  -0.11   0.04     0.02   0.32  -0.11    -0.05   0.17  -0.02
   9   7    -0.21   0.25  -0.09    -0.07  -0.49   0.06     0.16  -0.30   0.10
  10   6    -0.08  -0.01  -0.00    -0.02  -0.00   0.01     0.12   0.01   0.01
  11   7     0.06  -0.00   0.00     0.06   0.02  -0.01    -0.06  -0.00  -0.00
  12   7     0.13   0.02  -0.01    -0.09   0.04  -0.02    -0.13  -0.00   0.00
  13   1     0.19   0.05  -0.03     0.34   0.06  -0.13     0.13   0.04   0.01
  14   1     0.01  -0.02  -0.01    -0.14   0.04   0.10    -0.16  -0.09  -0.04
  15   1     0.05   0.19   0.12    -0.08  -0.18  -0.08     0.17   0.32   0.17
  16   1    -0.04  -0.32  -0.16     0.03   0.01   0.00    -0.10  -0.28  -0.15
  17   1     0.09   0.18   0.11    -0.12   0.07  -0.00     0.12   0.01   0.07
  18   1     0.00  -0.00  -0.03    -0.02  -0.01   0.07     0.05   0.02  -0.17
  19   1    -0.14  -0.08   0.05    -0.02  -0.01   0.01    -0.07  -0.05   0.04
  20   1     0.16   0.14   0.03     0.03   0.02   0.00     0.13   0.09   0.01
  21   1     0.16  -0.28  -0.10     0.16  -0.16  -0.12    -0.20   0.28   0.11
  22   1    -0.11   0.17   0.01    -0.25   0.37   0.12     0.11  -0.12  -0.05
  23   1     0.03   0.04  -0.01     0.01  -0.00   0.02    -0.04  -0.05   0.01
  24   1    -0.03  -0.02  -0.01    -0.01  -0.01  -0.01     0.02   0.02   0.01
  25   1    -0.07  -0.28   0.13     0.02   0.13  -0.07     0.06   0.26  -0.13
  26   1    -0.02  -0.17  -0.14     0.00   0.04   0.04     0.00   0.00  -0.00
                     46                     47                     48
                        a                      a                      a 
 Frequencies --  1296.6826              1317.8477              1331.5941
 Red. masses --     4.0411                 3.5480                 4.0973
 Frc consts  --     0.0000                 0.0000                 0.0000
 IR Inten    --    61.4191                 9.2100                 9.9142
 Raman Activ --     0.0000                 0.0000                 0.0000
 Depolar     --     0.0000                 0.0000                 0.0000
 Atom AN      X      Y      Z        X      Y      Z        X      Y      Z
   1   6    -0.04  -0.00  -0.01     0.12  -0.03  -0.10    -0.06  -0.15   0.02
   2   6    -0.06  -0.01  -0.13     0.10   0.31   0.15     0.09   0.10   0.09
   3   6     0.28  -0.25   0.04     0.01   0.04   0.13    -0.10   0.14   0.05
   4   6     0.02  -0.02   0.27    -0.07   0.04   0.04     0.10  -0.09   0.06
   5   8    -0.06  -0.04  -0.09     0.02  -0.01   0.01    -0.03   0.00  -0.03
   6   8     0.00   0.02  -0.06     0.04  -0.01  -0.03    -0.05   0.02   0.01
   7   7    -0.04   0.06  -0.07     0.03  -0.00  -0.16     0.02  -0.03  -0.07
   8   6    -0.02   0.01   0.03     0.07  -0.10  -0.01    -0.23   0.27   0.12
   9   7     0.01   0.05  -0.03    -0.01  -0.00   0.01     0.09   0.05  -0.03
  10   6    -0.02   0.02  -0.01     0.02  -0.00   0.01    -0.01   0.01  -0.01
  11   7    -0.00  -0.00   0.00     0.00   0.01  -0.01    -0.04  -0.03   0.02
  12   7     0.02  -0.03   0.01    -0.01  -0.00  -0.00     0.01   0.01  -0.00
  13   1     0.04   0.01   0.01    -0.27  -0.07   0.04     0.12  -0.01  -0.12
  14   1     0.05   0.02  -0.01     0.05   0.00  -0.03    -0.01   0.00   0.01
  15   1     0.04   0.24   0.14    -0.14  -0.33  -0.18    -0.04  -0.20  -0.11
  16   1     0.03  -0.03  -0.01    -0.16  -0.36  -0.20    -0.03  -0.10  -0.05
  17   1    -0.66   0.36   0.00    -0.35  -0.20  -0.04    -0.05  -0.21  -0.03
  18   1     0.01  -0.00  -0.02    -0.03  -0.01   0.10     0.04   0.01  -0.13
  19   1     0.03  -0.04   0.07    -0.14  -0.12   0.08    -0.09  -0.05   0.02
  20   1     0.09  -0.01  -0.01     0.18   0.10   0.00     0.08   0.07   0.01
  21   1     0.02  -0.03  -0.01    -0.17   0.13   0.09     0.28  -0.30  -0.16
  22   1     0.08  -0.10  -0.04    -0.10   0.09   0.09     0.35  -0.41  -0.20
  23   1     0.01   0.01  -0.01    -0.01  -0.02   0.02     0.01   0.05  -0.04
  24   1     0.00   0.00   0.00    -0.01  -0.00  -0.00     0.02   0.01   0.01
  25   1     0.00  -0.01   0.01     0.00   0.00  -0.00    -0.00  -0.00   0.01
  26   1     0.01   0.17   0.16    -0.00  -0.05  -0.05     0.01   0.09   0.08
                     49                     50                     51
                        a                      a                      a 
 Frequencies --  1342.4293              1354.9397              1365.4165
 Red. masses --     4.4446                 5.1766                 6.4985
 Frc consts  --     0.0000                 0.0000                 0.0000
 IR Inten    --     5.2728                 5.4775                27.3264
 Raman Activ --     0.0000                 0.0000                 0.0000
 Depolar     --     0.0000                 0.0000                 0.0000
 Atom AN      X      Y      Z        X      Y      Z        X      Y      Z
   1   6    -0.46  -0.11   0.06    -0.14   0.05   0.05     0.05  -0.00   0.01
   2   6     0.10   0.11  -0.04    -0.05  -0.28  -0.10    -0.06  -0.09  -0.03
   3   6    -0.03  -0.07  -0.03     0.06   0.38   0.18     0.19   0.02   0.08
   4   6    -0.10   0.06  -0.03     0.09  -0.08   0.00    -0.48   0.18  -0.14
   5   8     0.03   0.00   0.02    -0.01  -0.00  -0.01     0.13   0.01   0.10
   6   8     0.04  -0.01  -0.01    -0.04   0.01   0.01     0.15  -0.05  -0.04
   7   7     0.01   0.00   0.03    -0.01  -0.06  -0.16     0.00   0.01  -0.04
   8   6     0.14   0.01   0.05     0.11  -0.05  -0.05    -0.12   0.08   0.03
   9   7     0.01  -0.03   0.02    -0.03  -0.00   0.01     0.05   0.00   0.00
  10   6     0.06  -0.01   0.01    -0.08   0.01  -0.00     0.21  -0.03   0.02
  11   7    -0.03  -0.01   0.00     0.03   0.01  -0.01    -0.07  -0.02   0.01
  12   7    -0.03   0.02  -0.01     0.03  -0.01   0.01    -0.07   0.05  -0.03
  13   1     0.29   0.05  -0.07     0.17   0.05   0.02     0.03   0.00  -0.02
  14   1     0.62   0.11  -0.17     0.12   0.02  -0.03    -0.12  -0.02   0.03
  15   1    -0.06  -0.13  -0.08     0.10   0.12   0.05     0.06   0.12   0.06
  16   1     0.06  -0.02   0.00     0.12   0.25   0.15     0.04   0.08   0.06
  17   1     0.05   0.12   0.02    -0.23  -0.50  -0.08    -0.13  -0.11  -0.02
  18   1    -0.03  -0.01   0.11     0.03   0.01  -0.09    -0.13  -0.04   0.41
  19   1     0.02   0.02  -0.02    -0.18  -0.12   0.06    -0.04  -0.04   0.03
  20   1    -0.03  -0.01   0.00     0.18   0.11   0.01     0.04  -0.00  -0.01
  21   1    -0.17   0.15   0.11    -0.11   0.07   0.05     0.13  -0.08  -0.07
  22   1     0.12  -0.07  -0.12    -0.07   0.08   0.07     0.09  -0.12  -0.07
  23   1    -0.01  -0.01   0.00     0.01   0.01   0.00    -0.03  -0.05   0.02
  24   1     0.00   0.01   0.01    -0.01  -0.00  -0.00    -0.00   0.01   0.01
  25   1     0.00   0.03  -0.02    -0.01  -0.04   0.01     0.00   0.06  -0.03
  26   1    -0.01  -0.08  -0.07     0.00   0.03   0.03    -0.02  -0.32  -0.28
                     52                     53                     54
                        a                      a                      a 
 Frequencies --  1424.9257              1466.0656              1470.6297
 Red. masses --     9.5166                 1.9114                 1.8801
 Frc consts  --     0.0000                 0.0000                 0.0000
 IR Inten    --   292.9951                11.2167                 2.3804
 Raman Activ --     0.0000                 0.0000                 0.0000
 Depolar     --     0.0000                 0.0000                 0.0000
 Atom AN      X      Y      Z        X      Y      Z        X      Y      Z
   1   6    -0.01  -0.02   0.03     0.00   0.03   0.06    -0.02  -0.14  -0.18
   2   6    -0.00   0.01   0.01    -0.00   0.01   0.01    -0.13   0.05   0.02
   3   6    -0.01   0.04  -0.01     0.00   0.01   0.01    -0.02   0.00   0.00
   4   6     0.10  -0.06   0.03     0.03  -0.00   0.00     0.01  -0.01  -0.01
   5   8    -0.02   0.00  -0.01    -0.01  -0.00  -0.00    -0.00   0.00   0.00
   6   8    -0.02   0.01  -0.01    -0.01   0.00  -0.00    -0.00   0.00   0.00
   7   7     0.00  -0.01   0.00     0.00   0.01  -0.01     0.00   0.00  -0.00
   8   6     0.06  -0.08   0.04    -0.10  -0.17   0.15    -0.03  -0.05   0.02
   9   7    -0.42   0.16  -0.06    -0.01  -0.05   0.02    -0.02   0.01   0.00
  10   6     0.60   0.19  -0.07    -0.01  -0.03   0.02     0.03   0.00  -0.00
  11   7    -0.08   0.01  -0.01    -0.05  -0.03   0.03    -0.02  -0.01   0.01
  12   7    -0.10  -0.24   0.11    -0.00   0.03  -0.02    -0.00  -0.00   0.00
  13   1     0.00  -0.00  -0.05    -0.06  -0.01  -0.15     0.14  -0.00   0.54
  14   1     0.00  -0.03  -0.01     0.02  -0.15  -0.05    -0.09   0.53   0.20
  15   1     0.00  -0.02  -0.01     0.01   0.00  -0.00     0.25  -0.02  -0.25
  16   1     0.01  -0.00   0.00     0.01  -0.00   0.01     0.27  -0.19   0.13
  17   1    -0.01  -0.02  -0.01    -0.03  -0.04  -0.01     0.00   0.01   0.00
  18   1     0.02   0.01  -0.07     0.01   0.00  -0.02    -0.00  -0.00  -0.01
  19   1    -0.01  -0.00  -0.01    -0.01  -0.01   0.01    -0.00  -0.01   0.01
  20   1    -0.01   0.01   0.00     0.01  -0.00  -0.00     0.00  -0.01  -0.00
  21   1     0.09  -0.05  -0.03     0.45   0.45  -0.02     0.10   0.09  -0.01
  22   1    -0.01   0.07  -0.08    -0.05   0.31  -0.55    -0.01   0.05  -0.12
  23   1    -0.14  -0.27   0.18     0.05   0.12  -0.12     0.00   0.01  -0.02
  24   1    -0.21  -0.01   0.03     0.16  -0.01  -0.03     0.02  -0.00  -0.00
  25   1     0.09   0.22  -0.12    -0.00   0.00  -0.00     0.00   0.01  -0.00
  26   1     0.00   0.05   0.04     0.00   0.02   0.01     0.00   0.00   0.00
                     55                     56                     57
                        a                      a                      a 
 Frequencies --  1487.1279              1500.6150              1563.7530
 Red. masses --     2.0180                 4.4957                 2.0753
 Frc consts  --     0.0000                 0.0000                 0.0000
 IR Inten    --     2.1317               224.4245                41.1739
 Raman Activ --     0.0000                 0.0000                 0.0000
 Depolar     --     0.0000                 0.0000                 0.0000
 Atom AN      X      Y      Z        X      Y      Z        X      Y      Z
   1   6    -0.01  -0.10  -0.12     0.01   0.01   0.01    -0.01   0.00   0.00
   2   6     0.23  -0.07  -0.04    -0.01  -0.00  -0.00     0.02  -0.02  -0.01
   3   6     0.02   0.01   0.01    -0.00   0.01  -0.00    -0.08   0.04  -0.03
   4   6    -0.00  -0.00  -0.02     0.02  -0.03   0.01     0.01  -0.02   0.00
   5   8     0.00   0.00   0.00    -0.01   0.01   0.00     0.00   0.00  -0.00
   6   8     0.00   0.00   0.01    -0.00   0.01  -0.01    -0.00   0.00   0.00
   7   7    -0.00  -0.02  -0.00     0.00  -0.00   0.00     0.10   0.24  -0.07
   8   6    -0.02  -0.02   0.02     0.07   0.01  -0.04     0.00  -0.00  -0.00
   9   7    -0.03   0.01  -0.00    -0.18   0.07  -0.03    -0.00   0.00  -0.00
  10   6     0.04   0.00   0.00     0.32  -0.00   0.07     0.00   0.01  -0.00
  11   7    -0.03  -0.01   0.01    -0.29  -0.17   0.13    -0.00  -0.00   0.00
  12   7    -0.01  -0.00   0.00    -0.06   0.03  -0.02     0.00  -0.01   0.00
  13   1     0.10  -0.00   0.32     0.00   0.00  -0.02     0.01   0.00   0.01
  14   1    -0.02   0.32   0.11     0.00  -0.01  -0.00     0.00   0.01   0.00
  15   1    -0.43  -0.02   0.38     0.02   0.00  -0.02    -0.02  -0.01   0.01
  16   1    -0.44   0.29  -0.23     0.02  -0.01   0.01    -0.01   0.03  -0.01
  17   1     0.00  -0.03  -0.01    -0.00   0.01  -0.00     0.07   0.03   0.01
  18   1    -0.00  -0.00  -0.00     0.00   0.00  -0.02     0.00  -0.00  -0.00
  19   1    -0.00   0.01  -0.02    -0.00   0.00  -0.01    -0.16  -0.36   0.53
  20   1    -0.00   0.02   0.01    -0.00   0.01   0.00    -0.05  -0.66  -0.17
  21   1     0.07   0.05  -0.01    -0.12  -0.13   0.01    -0.00  -0.00   0.00
  22   1     0.00   0.03  -0.08    -0.04  -0.01   0.17    -0.00  -0.00   0.01
  23   1     0.01   0.02  -0.03     0.13   0.35  -0.39     0.00   0.00  -0.00
  24   1     0.04  -0.00  -0.01     0.58  -0.03  -0.11     0.01  -0.00  -0.00
  25   1     0.00   0.01  -0.01     0.01   0.08  -0.04     0.00  -0.00   0.00
  26   1     0.00  -0.00  -0.00    -0.00   0.02   0.01    -0.00  -0.00   0.00
                     58                     59                     60
                        a                      a                      a 
 Frequencies --  1663.3593              2897.4569              2939.3075
 Red. masses --    12.0132                 1.7559                 1.7401
 Frc consts  --     0.0000                 0.0000                 0.0000
 IR Inten    --   425.7374                42.6808                39.7156
 Raman Activ --     0.0000                 0.0000                 0.0000
 Depolar     --     0.0000                 0.0000                 0.0000
 Atom AN      X      Y      Z        X      Y      Z        X      Y      Z
   1   6     0.00  -0.00   0.00    -0.00   0.01  -0.01    -0.00  -0.00  -0.00
   2   6    -0.00   0.00  -0.00    -0.00   0.00  -0.00    -0.00   0.02  -0.02
   3   6    -0.00   0.01  -0.01     0.00   0.00  -0.02    -0.02  -0.04   0.25
   4   6     0.04  -0.07   0.03     0.00   0.00   0.00     0.00  -0.00   0.01
   5   8    -0.01   0.00  -0.01     0.00  -0.00  -0.00    -0.00   0.00  -0.00
   6   8    -0.01   0.01  -0.01    -0.00  -0.00  -0.00     0.00   0.00  -0.00
   7   7     0.00   0.00  -0.00     0.00   0.00  -0.00    -0.00  -0.00   0.00
   8   6     0.00  -0.02  -0.00     0.09  -0.03   0.24     0.00  -0.00   0.02
   9   7    -0.12   0.12  -0.03     0.01  -0.01   0.00     0.00  -0.00  -0.00
  10   6     0.16  -0.71   0.32    -0.00   0.00   0.00     0.00  -0.00   0.00
  11   7     0.07   0.12  -0.07    -0.00   0.00   0.00    -0.00   0.00  -0.00
  12   7    -0.09   0.44  -0.20     0.00  -0.00   0.00    -0.00   0.00  -0.00
  13   1     0.00  -0.00  -0.00     0.00  -0.01  -0.00    -0.00   0.01  -0.00
  14   1    -0.00   0.00   0.00     0.02  -0.02   0.06     0.00  -0.00   0.01
  15   1    -0.00  -0.00   0.00     0.00  -0.00   0.00     0.05  -0.05   0.05
  16   1    -0.00   0.00   0.00    -0.00  -0.00   0.00    -0.04  -0.01   0.05
  17   1    -0.01  -0.00  -0.00    -0.01  -0.01   0.07     0.10   0.16  -0.94
  18   1     0.01   0.01  -0.06     0.00   0.00  -0.00     0.00  -0.00   0.00
  19   1    -0.00  -0.00   0.01     0.00  -0.00   0.00    -0.00  -0.00  -0.00
  20   1     0.00  -0.01  -0.00     0.00   0.00  -0.00    -0.00  -0.01   0.01
  21   1    -0.00  -0.01  -0.01    -0.27   0.21  -0.89    -0.02   0.02  -0.07
  22   1    -0.01   0.00  -0.00    -0.06  -0.05   0.02     0.01   0.00   0.00
  23   1    -0.05  -0.12   0.09     0.00  -0.00   0.00     0.00  -0.00   0.00
  24   1    -0.02   0.05   0.02     0.00   0.00  -0.00     0.00   0.00   0.00
  25   1    -0.04   0.11  -0.05    -0.00  -0.00  -0.00     0.00   0.00   0.00
  26   1    -0.00   0.07   0.04    -0.00   0.00   0.00     0.00  -0.00   0.00
                     61                     62                     63
                        a                      a                      a 
 Frequencies --  2976.7041              2985.2590              2996.9505
 Red. masses --     1.6888                 1.9342                 1.6317
 Frc consts  --     0.0000                 0.0000                 0.0000
 IR Inten    --    14.9722                16.0548                36.3798
 Raman Activ --     0.0000                 0.0000                 0.0000
 Depolar     --     0.0000                 0.0000                 0.0000
 Atom AN      X      Y      Z        X      Y      Z        X      Y      Z
   1   6    -0.02   0.06   0.00     0.07  -0.20   0.11    -0.00  -0.14  -0.11
   2   6     0.01  -0.01   0.02    -0.04   0.08  -0.12     0.01  -0.08   0.13
   3   6     0.00  -0.00  -0.00    -0.00   0.00  -0.02    -0.00  -0.00   0.01
   4   6     0.00   0.00  -0.00     0.00   0.00  -0.00    -0.00  -0.00   0.00
   5   8    -0.00  -0.00  -0.00    -0.00  -0.00   0.00    -0.00   0.00  -0.00
   6   8    -0.00   0.00   0.00    -0.00  -0.00  -0.00    -0.00   0.00  -0.00
   7   7    -0.00   0.00   0.00     0.00   0.00   0.00    -0.00  -0.00  -0.00
   8   6    -0.19  -0.14  -0.05    -0.04  -0.04   0.00    -0.03  -0.02  -0.01
   9   7    -0.00  -0.01   0.00    -0.00  -0.00  -0.00     0.00  -0.00  -0.00
  10   6    -0.00  -0.00   0.00    -0.00  -0.00   0.00    -0.00  -0.00  -0.00
  11   7    -0.00   0.00  -0.00    -0.00   0.00   0.00    -0.00   0.00   0.00
  12   7     0.00   0.00  -0.00     0.00  -0.00   0.00     0.00   0.00  -0.00
  13   1     0.04  -0.23  -0.00    -0.11   0.60   0.03    -0.13   0.68  -0.00
  14   1    -0.00   0.01   0.00    -0.13   0.13  -0.44     0.13  -0.17   0.41
  15   1    -0.04   0.04  -0.05     0.27  -0.26   0.30    -0.20   0.20  -0.22
  16   1     0.00  -0.00  -0.00    -0.12  -0.03   0.15     0.18   0.06  -0.25
  17   1     0.00   0.00   0.00    -0.00  -0.01   0.06     0.00   0.01  -0.04
  18   1     0.00  -0.00  -0.00     0.00   0.00  -0.00     0.00  -0.00   0.00
  19   1     0.00   0.00  -0.00     0.00  -0.00  -0.00     0.00   0.00   0.00
  20   1     0.00   0.00   0.00     0.00  -0.00  -0.00     0.00   0.00   0.00
  21   1    -0.05  -0.00  -0.08    -0.02   0.01  -0.04    -0.00  -0.00  -0.00
  22   1     0.74   0.51   0.25     0.16   0.10   0.05     0.11   0.07   0.04
  23   1     0.00  -0.00  -0.00     0.00  -0.00  -0.00     0.00  -0.00  -0.00
  24   1     0.00   0.00   0.00     0.00   0.00  -0.00     0.00  -0.00   0.00
  25   1     0.00  -0.00  -0.00    -0.00   0.00  -0.00    -0.00   0.00  -0.00
  26   1     0.00  -0.00   0.00     0.00   0.00   0.00     0.00  -0.00   0.00
                     64                     65                     66
                        a                      a                      a 
 Frequencies --  3003.1879              3013.0157              3310.8354
 Red. masses --     1.8275                 1.5951                 1.8647
 Frc consts  --     0.0000                 0.0000                 0.0000
 IR Inten    --    59.3711                28.8355                91.0869
 Raman Activ --     0.0000                 0.0000                 0.0000
 Depolar     --     0.0000                 0.0000                 0.0000
 Atom AN      X      Y      Z        X      Y      Z        X      Y      Z
   1   6    -0.05   0.07  -0.16     0.01   0.01   0.05     0.00  -0.00  -0.00
   2   6    -0.09   0.11  -0.13    -0.17  -0.01   0.14     0.00  -0.00   0.00
   3   6    -0.00   0.01  -0.02    -0.01   0.00   0.01     0.00  -0.00   0.00
   4   6     0.00  -0.00  -0.00    -0.00  -0.00   0.00     0.01  -0.01  -0.01
   5   8     0.00   0.00   0.00     0.00  -0.00  -0.00     0.20  -0.08   0.08
   6   8     0.00   0.00   0.00     0.00  -0.00  -0.00    -0.03   0.02  -0.01
   7   7     0.00   0.00   0.00     0.00  -0.00  -0.00     0.00  -0.00  -0.00
   8   6    -0.01  -0.00  -0.02     0.00  -0.00   0.01    -0.00  -0.00  -0.00
   9   7    -0.00  -0.00   0.00     0.00  -0.00  -0.00     0.00  -0.00   0.00
  10   6     0.00  -0.00  -0.00     0.00  -0.00   0.00    -0.01   0.01  -0.00
  11   7    -0.00   0.00   0.00    -0.00  -0.00  -0.00     0.00  -0.00   0.00
  12   7    -0.00   0.00   0.00     0.00   0.00  -0.00     0.01  -0.01  -0.00
  13   1     0.00  -0.04  -0.02     0.02  -0.11   0.01    -0.00   0.00  -0.00
  14   1     0.18  -0.21   0.60    -0.06   0.07  -0.19    -0.00   0.00   0.00
  15   1     0.37  -0.38   0.43     0.14  -0.17   0.21    -0.00   0.00  -0.00
  16   1    -0.05  -0.00   0.04     0.47   0.20  -0.73    -0.00  -0.00   0.00
  17   1    -0.01  -0.01   0.07     0.00   0.01  -0.03     0.00   0.00  -0.00
  18   1    -0.00  -0.00   0.00    -0.00   0.00  -0.00     0.13  -0.06   0.05
  19   1     0.00   0.00  -0.00    -0.00   0.01   0.00    -0.00   0.01   0.01
  20   1    -0.00   0.00  -0.00    -0.00   0.00   0.00     0.00  -0.00   0.00
  21   1     0.01  -0.01   0.04    -0.00   0.00  -0.01     0.00   0.00   0.00
  22   1     0.04   0.03   0.01    -0.01  -0.00  -0.00     0.00   0.00   0.00
  23   1     0.00  -0.00  -0.00     0.00   0.00   0.00    -0.00   0.00  -0.00
  24   1    -0.00  -0.00   0.00     0.00   0.00  -0.00    -0.00   0.00  -0.00
  25   1     0.00  -0.00   0.00     0.00  -0.00   0.00    -0.02   0.00  -0.00
  26   1    -0.00   0.00  -0.00    -0.00   0.00  -0.00    -0.83   0.38  -0.29
                     67                     68                     69
                        a                      a                      a 
 Frequencies --  3369.8862              3379.0149              3403.4164
 Red. masses --     1.8635                 1.5507                 1.8649
 Frc consts  --     0.0000                 0.0000                 0.0000
 IR Inten    --   120.1781                 3.5645                31.6308
 Raman Activ --     0.0000                 0.0000                 0.0000
 Depolar     --     0.0000                 0.0000                 0.0000
 Atom AN      X      Y      Z        X      Y      Z        X      Y      Z
   1   6    -0.00  -0.00  -0.00     0.00  -0.00   0.00     0.00  -0.00   0.00
   2   6     0.00  -0.00  -0.00     0.00   0.00   0.00     0.00  -0.00   0.00
   3   6    -0.00  -0.00   0.00     0.00  -0.01   0.01     0.00   0.00   0.00
   4   6     0.00  -0.01   0.01     0.00   0.00  -0.00     0.00  -0.00   0.00
   5   8     0.03  -0.01   0.01    -0.00   0.00  -0.00     0.01  -0.00   0.00
   6   8     0.21  -0.09   0.06    -0.01   0.01  -0.00     0.01  -0.01   0.00
   7   7    -0.00  -0.01   0.01     0.00  -0.15   0.14    -0.00   0.00   0.00
   8   6     0.00  -0.00   0.00    -0.00  -0.00   0.00    -0.00  -0.00  -0.00
   9   7     0.00  -0.00   0.00    -0.00  -0.00   0.00     0.00   0.00   0.00
  10   6    -0.01   0.01  -0.00     0.00  -0.00   0.00    -0.01  -0.01   0.00
  11   7     0.00  -0.00  -0.00    -0.00   0.00  -0.00     0.00  -0.00   0.00
  12   7     0.02  -0.01   0.01    -0.00   0.00  -0.00    -0.24   0.08  -0.04
  13   1    -0.00   0.00  -0.00    -0.00   0.00   0.00    -0.00   0.00  -0.00
  14   1     0.00  -0.00   0.00     0.00   0.00  -0.00    -0.00  -0.00  -0.00
  15   1    -0.00   0.00  -0.00    -0.00   0.00  -0.00    -0.00   0.00  -0.00
  16   1    -0.00  -0.00   0.00    -0.00  -0.00  -0.00    -0.00  -0.00   0.00
  17   1     0.00   0.00  -0.00    -0.00   0.00  -0.01    -0.00   0.00  -0.00
  18   1    -0.83   0.38  -0.28     0.05  -0.02   0.01    -0.05   0.03  -0.02
  19   1    -0.00   0.01   0.01    -0.09   0.40   0.29     0.00  -0.00  -0.00
  20   1     0.00   0.01  -0.05     0.08   0.18  -0.81     0.00   0.00  -0.00
  21   1    -0.00   0.00  -0.00     0.00   0.00  -0.00    -0.00   0.00  -0.00
  22   1     0.00   0.00   0.00     0.00   0.00  -0.00     0.00  -0.00  -0.00
  23   1    -0.01   0.01  -0.00     0.00   0.00  -0.00    -0.00   0.00  -0.00
  24   1     0.00  -0.00   0.00     0.00  -0.00   0.00    -0.00   0.01  -0.02
  25   1    -0.06   0.02  -0.01     0.00  -0.00   0.00     0.92  -0.27   0.12
  26   1    -0.13   0.06  -0.05     0.01  -0.01   0.00    -0.03   0.02  -0.01
                     70                     71                     72
                        a                      a                      a 
 Frequencies --  3408.5832              3457.1718              3509.7040
 Red. masses --     2.0383                 1.4714                 2.1419
 Frc consts  --     0.0000                 0.0000                 0.0000
 IR Inten    --     1.3935                 2.1612                 0.6598
 Raman Activ --     0.0000                 0.0000                 0.0000
 Depolar     --     0.0000                 0.0000                 0.0000
 Atom AN      X      Y      Z        X      Y      Z        X      Y      Z
   1   6    -0.00  -0.00  -0.00    -0.00   0.00   0.00     0.00   0.00  -0.00
   2   6     0.00  -0.00  -0.00    -0.00  -0.00   0.00     0.00   0.00   0.00
   3   6     0.00  -0.00  -0.01     0.00   0.00  -0.00     0.00   0.00   0.00
   4   6     0.00  -0.00  -0.00     0.00   0.00   0.00    -0.00  -0.00   0.00
   5   8    -0.00   0.00  -0.00    -0.00   0.00  -0.00    -0.00   0.00  -0.00
   6   8     0.00  -0.00   0.00    -0.00   0.00  -0.00    -0.00   0.00  -0.00
   7   7     0.05  -0.15  -0.24    -0.00   0.00   0.00     0.00  -0.00   0.00
   8   6     0.00  -0.00  -0.00    -0.00  -0.00   0.00    -0.00  -0.00  -0.00
   9   7     0.00  -0.00   0.00    -0.00   0.00  -0.00    -0.00   0.00  -0.00
  10   6    -0.00   0.00  -0.00     0.00  -0.00  -0.00     0.01  -0.01   0.00
  11   7     0.00   0.00  -0.00     0.15   0.04  -0.11     0.18  -0.18   0.15
  12   7    -0.00   0.00  -0.00    -0.00  -0.00   0.00     0.00  -0.00  -0.00
  13   1    -0.00  -0.00  -0.00    -0.00   0.00   0.00     0.00   0.00  -0.00
  14   1     0.00  -0.00   0.00     0.00   0.00  -0.00     0.00  -0.00   0.00
  15   1    -0.00   0.00  -0.00    -0.00  -0.00   0.00    -0.00   0.00  -0.00
  16   1    -0.00   0.00   0.01     0.00   0.00  -0.00     0.00   0.00  -0.00
  17   1     0.00   0.00   0.01    -0.00  -0.00  -0.00    -0.00   0.00  -0.00
  18   1    -0.01   0.00  -0.00     0.01  -0.00   0.00     0.00  -0.00   0.00
  19   1    -0.17   0.69   0.43     0.00  -0.00  -0.00    -0.00   0.00   0.00
  20   1    -0.03  -0.14   0.47    -0.00  -0.00   0.00    -0.00   0.00  -0.00
  21   1    -0.00  -0.00   0.00    -0.00   0.00  -0.00     0.00   0.00  -0.00
  22   1     0.00   0.00   0.00     0.00  -0.00   0.00     0.00   0.00   0.00
  23   1    -0.00   0.00  -0.00    -0.68   0.29  -0.05    -0.58   0.23  -0.01
  24   1     0.00  -0.00   0.00     0.12  -0.42   0.47    -0.10   0.46  -0.55
  25   1     0.00  -0.00   0.00     0.01  -0.00  -0.00    -0.02   0.01  -0.00
  26   1     0.01  -0.00   0.00     0.00  -0.00   0.00     0.01  -0.00   0.00
