      -----------------------------------------------------------      
     |                   =====================                   |     
     |                           x T B                           |     
     |                   =====================                   |     
     |                         S. Grimme                         |     
     |          Mulliken Center for Theoretical Chemistry        |     
     |                    University of Bonn                     |     
      -----------------------------------------------------------      

   * xtb version 6.6.0 (8843059) compiled by 'stahn@majestix' on 2023-02-09

   xtb is free software: you can redistribute it and/or modify it under
   the terms of the GNU Lesser General Public License as published by
   the Free Software Foundation, either version 3 of the License, or
   (at your option) any later version.
   
   xtb is distributed in the hope that it will be useful,
   but WITHOUT ANY WARRANTY; without even the implied warranty of
   MERCHANTABILITY or FITNESS FOR A PARTICULAR PURPOSE.  See the
   GNU Lesser General Public License for more details.
   
   Cite this work as:
   * C. Bannwarth, E. Caldeweyher, S. Ehlert, A. Hansen, P. Pracht,
     J. Seibert, S. Spicher, S. Grimme, WIREs Comput. Mol. Sci., 2020, 11,
     e01493. DOI: 10.1002/wcms.1493
   
   for GFN2-xTB:
   * C. Bannwarth, S. Ehlert and S. Grimme., J. Chem. Theory Comput., 2019,
     15, 1652-1671. DOI: 10.1021/acs.jctc.8b01176
   for GFN1-xTB:
   * S. Grimme, C. Bannwarth, P. Shushkov, J. Chem. Theory Comput., 2017,
     13, 1989-2009. DOI: 10.1021/acs.jctc.7b00118
   for GFN0-xTB:
   * P. Pracht, E. Caldeweyher, S. Ehlert, S. Grimme, ChemRxiv, 2019, preprint.
     DOI: 10.26434/chemrxiv.8326202.v1
   for GFN-FF:
   * S. Spicher and S. Grimme, Angew. Chem. Int. Ed., 2020, 59, 15665-15673.
     DOI: 10.1002/anie.202004239
   
   for ALPB and GBSA implicit solvation:
   * S. Ehlert, M. Stahn, S. Spicher, S. Grimme, J. Chem. Theory Comput.,
     2021, 17, 4250-4261. DOI: 10.1021/acs.jctc.1c00471
   
   for DFT-D4:
   * E. Caldeweyher, C. Bannwarth and S. Grimme, J. Chem. Phys., 2017,
     147, 034112. DOI: 10.1063/1.4993215
   * E. Caldeweyher, S. Ehlert, A. Hansen, H. Neugebauer, S. Spicher,
     C. Bannwarth and S. Grimme, J. Chem. Phys., 2019, 150, 154122.
     DOI: 10.1063/1.5090222
   * E. Caldeweyher, J.-M. Mewes, S. Ehlert and S. Grimme, Phys. Chem. Chem. Phys.
     2020, 22, 8499-8512. DOI: 10.1039/D0CP00502A
   
   for sTDA-xTB:
   * S. Grimme and C. Bannwarth, J. Chem. Phys., 2016, 145, 054103.
     DOI: 10.1063/1.4959605
   
   in the mass-spec context:
   * V. Asgeirsson, C. Bauer and S. Grimme, Chem. Sci., 2017, 8, 4879.
     DOI: 10.1039/c7sc00601b
   * J. Koopman and S. Grimme, ACS Omega 2019, 4, 12, 15120-15133.
     DOI: 10.1021/acsomega.9b02011
   
   for metadynamics refer to:
   * S. Grimme, J. Chem. Theory Comput., 2019, 155, 2847-2862
     DOI: 10.1021/acs.jctc.9b00143
   
   for SPH calculations refer to:
   * S. Spicher and S. Grimme, J. Chem. Theory Comput., 2021, 17, 1701-1714
     DOI: 10.1021/acs.jctc.0c01306
   
   with help from (in alphabetical order)
   P. Atkinson, C. Bannwarth, F. Bohle, G. Brandenburg, E. Caldeweyher
   M. Checinski, S. Dohm, S. Ehlert, S. Ehrlich, I. Gerasimov, C. Hölzer
   A. Katbashev, J. Koopman, C. Lavigne, S. Lehtola, F. März, M. Müller,
   F. Musil, H. Neugebauer, J. Pisarek, C. Plett, P. Pracht, F. Pultar,
   J. Seibert, P. Shushkov, S. Spicher, M. Stahn, M. Steiner, T. Strunk,
   J. Stückrath, T. Rose, and J. Unsleber
   
 * started run on 2025/07/30 at 12:34:43.072     

           -------------------------------------------------
          |                Calculation Setup                |
           -------------------------------------------------

          program call               : xtb --gfn2 in.xyz --ohess vtight
          coordinate file            : in.xyz
          omp threads                :                     8

   ID    Z sym.   atoms
    1    6 C      1-4, 8, 10
    2    8 O      5, 6
    3    7 N      7, 9, 11, 12
    4    1 H      13-26

           -------------------------------------------------
          |                 G F N 2 - x T B                 |
           -------------------------------------------------

        Reference                      10.1021/acs.jctc.8b01176
      * Hamiltonian:
        H0-scaling (s, p, d)           1.850000    2.230000    2.230000
        zeta-weighting                 0.500000
      * Dispersion:
        s8                             2.700000
        a1                             0.520000
        a2                             5.000000
        s9                             5.000000
      * Repulsion:
        kExp                           1.500000    1.000000
        rExp                           1.000000
      * Coulomb:
        alpha                          2.000000
        third order                    shell-resolved
        anisotropic                    true
        a3                             3.000000
        a5                             4.000000
        cn-shift                       1.200000
        cn-exp                         4.000000
        max-rad                        5.000000


          ...................................................
          :                      SETUP                      :
          :.................................................:
          :  # basis functions                  62          :
          :  # atomic orbitals                  62          :
          :  # shells                           38          :
          :  # electrons                        70          :
          :  max. iterations                   250          :
          :  Hamiltonian                  GFN2-xTB          :
          :  restarted?                      false          :
          :  GBSA solvation                  false          :
          :  PC potential                    false          :
          :  electronic temp.          300.0000000     K    :
          :  accuracy                    1.0000000          :
          :  -> integral cutoff          0.2500000E+02      :
          :  -> integral neglect         0.1000000E-07      :
          :  -> SCF convergence          0.1000000E-05 Eh   :
          :  -> wf. convergence          0.1000000E-03 e    :
          :  Broyden damping             0.4000000          :
          ...................................................

 iter      E             dE          RMSdq      gap      omega  full diag
   1    -40.2036229 -0.402036E+02  0.364E+00    4.97       0.0  T
   2    -40.2478705 -0.442476E-01  0.205E+00    5.18       1.0  T
   3    -40.2502305 -0.235992E-02  0.737E-01    4.63       1.0  T
   4    -40.2513778 -0.114735E-02  0.187E-01    4.59       1.0  T
   5    -40.2515317 -0.153928E-03  0.674E-02    4.57       1.0  T
   6    -40.2515622 -0.304716E-04  0.338E-02    4.59       1.0  T
   7    -40.2515642 -0.200036E-05  0.857E-03    4.59       2.3  T
   8    -40.2515648 -0.612513E-06  0.281E-03    4.60       7.0  T
   9    -40.2515649 -0.291011E-07  0.135E-03    4.59      14.5  T
  10    -40.2515649 -0.336736E-08  0.411E-04    4.59      47.8  T
  11    -40.2515649 -0.775223E-09  0.127E-04    4.59     154.0  T

   *** convergence criteria satisfied after 11 iterations ***

         #    Occupation            Energy/Eh            Energy/eV
      -------------------------------------------------------------
         1        2.0000           -0.6995125             -19.0347
       ...           ...                  ...                  ...
        29        2.0000           -0.4317313             -11.7480
        30        2.0000           -0.4277681             -11.6402
        31        2.0000           -0.4256745             -11.5832
        32        2.0000           -0.4067591             -11.0685
        33        2.0000           -0.3865007             -10.5172
        34        2.0000           -0.3767120             -10.2509
        35        2.0000           -0.3595606              -9.7841 (HOMO)
        36                         -0.1907244              -5.1899 (LUMO)
        37                         -0.0217311              -0.5913
        38                          0.0298543               0.8124
        39                          0.0377053               1.0260
        40                          0.0636091               1.7309
       ...                                ...                  ...
        62                          0.5529030              15.0453
      -------------------------------------------------------------
                  HL-Gap            0.1688362 Eh            4.5943 eV
             Fermi-level           -0.2751425 Eh           -7.4870 eV

 SCC (total)                   0 d,  0 h,  0 min,  0.018 sec
 SCC setup                      ...        0 min,  0.000 sec (  1.158%)
 Dispersion                     ...        0 min,  0.000 sec (  1.191%)
 classical contributions        ...        0 min,  0.000 sec (  0.172%)
 integral evaluation            ...        0 min,  0.001 sec (  7.749%)
 iterations                     ...        0 min,  0.011 sec ( 63.598%)
 molecular gradient             ...        0 min,  0.004 sec ( 24.893%)
 printout                       ...        0 min,  0.000 sec (  1.103%)

         :::::::::::::::::::::::::::::::::::::::::::::::::::::
         ::                     SUMMARY                     ::
         :::::::::::::::::::::::::::::::::::::::::::::::::::::
         :: total energy             -39.833296174435 Eh    ::
         :: gradient norm              0.000057219757 Eh/a0 ::
         :: HOMO-LUMO gap              4.594265886387 eV    ::
         ::.................................................::
         :: SCC energy               -40.251564857267 Eh    ::
         :: -> isotropic ES            0.099226999277 Eh    ::
         :: -> anisotropic ES         -0.005487980556 Eh    ::
         :: -> anisotropic XC          0.015015401358 Eh    ::
         :: -> dispersion             -0.023257013026 Eh    ::
         :: repulsion energy           0.418062201349 Eh    ::
         :: add. restraining           0.000000000000 Eh    ::
         :: total charge              -0.000000000000 e     ::
         :::::::::::::::::::::::::::::::::::::::::::::::::::::

      ----------------------------------------------------------- 
     |                   =====================                   |
     |                        A N C O P T                        |
     |                   =====================                   |
     |               Approximate Normal Coordinate               |
     |                Rational Function Optimizer                |
      ----------------------------------------------------------- 

          ...................................................
          :                      SETUP                      :
          :.................................................:
          :   optimization level         verytight          :
          :   max. optcycles                   520          :
          :   ANC micro-cycles                  20          :
          :   degrees of freedom                72          :
          :.................................................:
          :   RF solver                   davidson          :
          :   write xtbopt.log                true          :
          :   linear?                        false          :
          :   energy convergence         0.1000000E-06 Eh   :
          :   grad. convergence          0.2000000E-03 Eh/α :
          :   maxmium RF displ.          1.0000000          :
          :   Hlow (freq-cutoff)         0.1000000E-01      :
          :   Hmax (freq-cutoff)         5.0000000          :
          :   S6 in model hess.         20.0000000          :
          ...................................................

generating ANC from model Hessian ...
Using Lindh-Hessian (1995)
 Shifting diagonal of input Hessian by   7.261957417965747E-003
 Lowest  eigenvalues of input Hessian
    0.000000    0.000000    0.000000    0.000000    0.000000    0.000000
    0.010000    0.011949    0.013312    0.014850    0.016056    0.021029
    0.022489    0.024104    0.027230    0.028256    0.030761    0.034116
 Highest eigenvalues
    1.472690    1.513233    1.608961    1.648986    2.067525    2.252234
 

........................................................................
.............................. CYCLE    1 ..............................
........................................................................

 iter      E             dE          RMSdq      gap      omega  full diag
   1    -40.2515649 -0.402516E+02  0.575E-05    4.59       0.0  T
   2    -40.2515649 -0.544276E-11  0.345E-05    4.59     568.9  T
   3    -40.2515649 -0.589750E-12  0.109E-05    4.59    1806.9  T
     SCC iter.                  ...        0 min,  0.003 sec
     gradient                   ...        0 min,  0.004 sec
 * total energy  :   -39.8332962 Eh     change       -0.5650946E-10 Eh
   gradient norm :     0.0000572 Eh/α   predicted     0.0000000E+00 (-100.00%)
   displ. norm   :     0.0000857 α      lambda        0.0000000E+00
   maximum displ.:     0.0000326 α      in ANC's #47, #50, #60, ...

   *** GEOMETRY OPTIMIZATION CONVERGED AFTER 1 ITERATIONS ***

------------------------------------------------------------------------
 total energy gain   :        -0.0000000 Eh       -0.0000 kcal/mol
 total RMSD          :         0.0000000 a0        0.0000 Å
 total power (kW/mol):        -0.0000001 (step)   -0.0000 (real)
------------------------------------------------------------------------

 ANCopt (total)                0 d,  0 h,  0 min,  0.039 sec
 optimizer setup                ...        0 min,  0.000 sec (  0.349%)
 model hessian                  ...        0 min,  0.029 sec ( 75.562%)
 ANC generation                 ...        0 min,  0.001 sec (  1.869%)
 coordinate transformation      ...        0 min,  0.000 sec (  0.052%)
 single point calculation       ...        0 min,  0.008 sec ( 21.419%)
 optimization log               ...        0 min,  0.000 sec (  0.345%)
 hessian update                 ...        0 min,  0.000 sec (  0.005%)
 rational function              ...        0 min,  0.000 sec (  0.124%)

================
 final structure:
================
26
 xtb: 6.6.0 (8843059)
C           -0.80196700000000        2.02529300000000        0.60451200000000
C           -2.06209000000000        1.27008900000000        0.18202800000000
C           -1.72203400000000       -0.04425300000000       -0.52996100000000
C           -0.37263300000000       -0.62196300000000       -0.03633600000000
O           -0.13138400000000       -1.77263100000000       -0.77473100000000
O           -0.45993300000000       -0.90603000000000        1.32156400000000
N           -2.80386800000000       -0.99035100000000       -0.36163900000000
C            0.34421600000000        1.74654700000000       -0.36494200000000
N            0.70570800000000        0.34196600000000       -0.29807000000000
C            1.97698300000000       -0.07244400000000       -0.01759900000000
N            2.99505100000000        0.80956600000000       -0.32689000000000
N            2.15484000000000       -1.22755500000000        0.51328900000000
H           -0.99463800000000        3.09782200000000        0.64411000000000
H           -0.49157600000000        1.69405000000000        1.59652600000000
H           -2.66896000000000        1.87567200000000       -0.49062900000000
H           -2.66554000000000        1.03968100000000        1.05929300000000
H           -1.59714000000000        0.12348100000000       -1.60501700000000
H            0.39911600000000       -1.28725500000000        1.57424100000000
H           -2.58139100000000       -1.83717600000000       -0.87583500000000
H           -2.85892800000000       -1.24573500000000        0.62063700000000
H            0.04450400000000        2.00563100000000       -1.38830100000000
H            1.20983900000000        2.34857700000000       -0.08322100000000
H            3.92160000000000        0.41255300000000       -0.29981100000000
H            2.84318100000000        1.44311500000000       -1.09441500000000
H            3.12880700000000       -1.48386100000000        0.62796400000000
H            0.71905300000000       -2.12765800000000       -0.45432500000000
 
 Bond Distances (Angstroems)
 ---------------------------
C1-C2=1.5286         C1-C8=1.5269         C1-H13=1.0904        C1-H14=1.0909        C2-C1=1.5286         C2-C3=1.5330         
C2-H15=1.0897        C2-H16=1.0894        C3-C2=1.5330         C3-C4=1.5486         C3-N7=1.4470         C3-H17=1.0952        
C4-C3=1.5486         C4-O5=1.3883         C4-O6=1.3900         C4-N9=1.4699         O5-C4=1.3883         O5-H26=0.9757        
O6-C4=1.3900         O6-H18=0.9732        N7-C3=1.4470         N7-H19=1.0154        N7-H20=1.0164        C8-C1=1.5269         
C8-N9=1.4519         C8-H21=1.0974        C8-H22=1.0914        N9-C4=1.4699         N9-C8=1.4519         N9-C10=1.3662        
C10-N9=1.3662        C10-N11=1.3821       C10-N12=1.2836       N11-C10=1.3821       N11-H23=1.0084       N11-H24=1.0067       
N12-C10=1.2836       N12-H25=1.0136       H13-C1=1.0904        H14-C1=1.0909        H15-C2=1.0897        H16-C2=1.0894        
H17-C3=1.0952        H18-O6=0.9732        H19-N7=1.0154        H20-N7=1.0164        H21-C8=1.0974        H22-C8=1.0914        
H23-N11=1.0084       H24-N11=1.0067       H25-N12=1.0136       H26-O5=0.9757        
 C  H  Rav=1.0921 sigma=0.0028  Rmin=1.0894  Rmax=1.0974     7
 C  C  Rav=1.5343 sigma=0.0086  Rmin=1.5269  Rmax=1.5486     4
 N  H  Rav=1.0121 sigma=0.0039  Rmin=1.0067  Rmax=1.0164     5
 N  C  Rav=1.4001 sigma=0.0643  Rmin=1.2836  Rmax=1.4699     6
 O  H  Rav=0.9744 sigma=0.0012  Rmin=0.9732  Rmax=0.9757     2
 O  C  Rav=1.3892 sigma=0.0009  Rmin=1.3883  Rmax=1.3900     2
 
 selected bond angles (degree)
 --------------------
C8-C1-C2=110.68                H13-C1-C2=110.51               H13-C1-C8=109.59               H14-C1-C2=109.62               
H14-C1-C8=107.96               H14-C1-H13=108.42              C3-C2-C1=111.66                H15-C2-C1=110.80               
H15-C2-C3=108.26               H16-C2-C1=109.79               H16-C2-C3=108.39               H16-C2-H15=107.83              
C4-C3-C2=111.41                N7-C3-C2=109.92                N7-C3-C4=111.74                H17-C3-C2=110.48               
H17-C3-C4=105.70               H17-C3-N7=107.43               O5-C4-C3=106.92                O6-C4-C3=109.44                
O6-C4-O5=111.17                N9-C4-C3=109.75                N9-C4-O5=108.74                N9-C4-O6=110.73                
H26-O5-C4=106.16               H18-O6-C4=106.16               H19-N7-C3=108.82               H20-N7-C3=108.49               
H20-N7-H19=106.96              N9-C8-C1=109.53                H21-C8-C1=110.12               H21-C8-N9=109.84               
H22-C8-C1=109.32               H22-C8-N9=108.92               H22-C8-H21=109.09              C8-N9-C4=117.39                
C10-N9-C4=116.56               C10-N9-C8=122.32               N11-C10-N9=116.48              N12-C10-N9=119.13              
N12-C10-N11=124.39             
 
 selected dihedral angles (degree)
 ---------------------------------
C3-C2-C1-C8= 30.62            C3-C2-C1-H13=152.21           C3-C2-C1-H14=271.64           H15-C2-C1-C8=269.86           
H15-C2-C1-H13= 31.44          H15-C2-C1-H14=150.88          H16-C2-C1-C8=150.86           H16-C2-C1-H13=272.45          
H16-C2-C1-H14= 31.89          C4-C3-C2-C1= 28.99            C4-C3-C2-H15=151.23           C4-C3-C2-H16=267.93           
N7-C3-C2-C1=153.42            N7-C3-C2-H15=275.65           N7-C3-C2-H16= 32.36           H17-C3-C2-C1=271.81           
H17-C3-C2-H15= 34.05          H17-C3-C2-H16=150.75          O5-C4-C3-C2=182.37            O5-C4-C3-N7= 58.98            
O5-C4-C3-H17=302.42           O6-C4-C3-C2= 61.87            O6-C4-C3-N7=298.47            O6-C4-C3-H17=181.91           
N9-C4-C3-C2=300.15            N9-C4-C3-N7=176.76            N9-C4-C3-H17= 60.20           H26-O5-C4-C3=180.09           
H26-O5-C4-O6=299.49           H26-O5-C4-N9= 61.66           H18-O6-C4-C3=178.43           H18-O6-C4-O5= 60.55           
H18-O6-C4-N9=299.55           H19-N7-C3-C2=177.32           H19-N7-C3-C4=301.56           H19-N7-C3-H17= 57.07          
H20-N7-C3-C2=293.36           H20-N7-C3-C4= 57.59           H20-N7-C3-H17=173.10          N9-C8-C1-C2=295.39            
N9-C8-C1-H13=173.26           N9-C8-C1-H14= 55.37           H21-C8-C1-C2= 56.28           H21-C8-C1-H13=294.15          
H21-C8-C1-H14=176.26          H22-C8-C1-C2=176.12           H22-C8-C1-H13= 53.99          H22-C8-C1-H14=296.10          
C8-N9-C4-C3= 26.50            C8-N9-C4-O5=143.14            C8-N9-C4-O6=265.57            C10-N9-C4-C3=185.26           
C10-N9-C4-O5=301.90           C10-N9-C4-O6= 64.33           C4-N9-C8-C1= 33.50            C4-N9-C8-H21=272.44           
C4-N9-C8-H22=153.02           C10-N9-C8-C1=236.05           C10-N9-C8-H21=114.99          C10-N9-C8-H22=355.56          
N11-C10-N9-C4=176.86          N11-C10-N9-C8=334.49          N12-C10-N9-C4=356.43          N12-C10-N9-C8=154.06          
           -------------------------------------------------
          |                Final Singlepoint                |
           -------------------------------------------------

          ...................................................
          :                      SETUP                      :
          :.................................................:
          :  # basis functions                  62          :
          :  # atomic orbitals                  62          :
          :  # shells                           38          :
          :  # electrons                        70          :
          :  max. iterations                   250          :
          :  Hamiltonian                  GFN2-xTB          :
          :  restarted?                      false          :
          :  GBSA solvation                  false          :
          :  PC potential                    false          :
          :  electronic temp.          300.0000000     K    :
          :  accuracy                    1.0000000          :
          :  -> integral cutoff          0.2500000E+02      :
          :  -> integral neglect         0.1000000E-07      :
          :  -> SCF convergence          0.1000000E-05 Eh   :
          :  -> wf. convergence          0.1000000E-03 e    :
          :  Broyden damping             0.4000000          :
          ...................................................

 iter      E             dE          RMSdq      gap      omega  full diag
   1    -40.2515649 -0.402516E+02  0.326E-06    4.59       0.0  T
   2    -40.2515649 -0.497380E-13  0.183E-06    4.59   10689.2  T
   3    -40.2515649 -0.497380E-13  0.102E-06    4.59   19135.7  T

   *** convergence criteria satisfied after 3 iterations ***

         #    Occupation            Energy/Eh            Energy/eV
      -------------------------------------------------------------
         1        2.0000           -0.6995117             -19.0347
       ...           ...                  ...                  ...
        29        2.0000           -0.4317309             -11.7480
        30        2.0000           -0.4277678             -11.6402
        31        2.0000           -0.4256747             -11.5832
        32        2.0000           -0.4067587             -11.0685
        33        2.0000           -0.3865000             -10.5172
        34        2.0000           -0.3767115             -10.2508
        35        2.0000           -0.3595608              -9.7841 (HOMO)
        36                         -0.1907235              -5.1899 (LUMO)
        37                         -0.0217307              -0.5913
        38                          0.0298546               0.8124
        39                          0.0377056               1.0260
        40                          0.0636091               1.7309
       ...                                ...                  ...
        62                          0.5529039              15.0453
      -------------------------------------------------------------
                  HL-Gap            0.1688373 Eh            4.5943 eV
             Fermi-level           -0.2751422 Eh           -7.4870 eV

 SCC (total)                   0 d,  0 h,  0 min,  0.009 sec
 SCC setup                      ...        0 min,  0.000 sec (  1.042%)
 Dispersion                     ...        0 min,  0.000 sec (  1.106%)
 classical contributions        ...        0 min,  0.000 sec (  0.194%)
 integral evaluation            ...        0 min,  0.001 sec ( 12.802%)
 iterations                     ...        0 min,  0.003 sec ( 34.920%)
 molecular gradient             ...        0 min,  0.004 sec ( 48.408%)
 printout                       ...        0 min,  0.000 sec (  1.256%)

         :::::::::::::::::::::::::::::::::::::::::::::::::::::
         ::                     SUMMARY                     ::
         :::::::::::::::::::::::::::::::::::::::::::::::::::::
         :: total energy             -39.833296174492 Eh    ::
         :: gradient norm              0.000057174124 Eh/a0 ::
         :: HOMO-LUMO gap              4.594297997494 eV    ::
         ::.................................................::
         :: SCC energy               -40.251564857325 Eh    ::
         :: -> isotropic ES            0.099227664607 Eh    ::
         :: -> anisotropic ES         -0.005487782041 Eh    ::
         :: -> anisotropic XC          0.015015490880 Eh    ::
         :: -> dispersion             -0.023257014611 Eh    ::
         :: repulsion energy           0.418062201349 Eh    ::
         :: add. restraining           0.000000000000 Eh    ::
         :: total charge              -0.000000000000 e     ::
         :::::::::::::::::::::::::::::::::::::::::::::::::::::

           ------------------------------------------------- 
          |                Numerical Hessian                |
           ------------------------------------------------- 
step length          :   0.00500
SCC accuracy         :   0.30000
Hessian scale factor :   1.00000
frozen atoms in %    :   0.00000    0
RMS gradient         :   0.00006
estimated CPU  time      0.87 min
estimated wall time      0.11 min

writing file <hessian>.

 projected vibrational frequencies (cm⁻¹)
eigval :       -0.00    -0.00    -0.00     0.00     0.00     0.00
eigval :       73.57    84.34   108.97   137.99   193.25   243.82
eigval :      280.33   297.80   322.36   326.22   373.21   403.03
eigval :      407.04   445.80   484.91   506.45   520.78   531.96
eigval :      564.23   590.12   627.92   641.76   662.75   739.81
eigval :      744.70   858.62   874.03   936.73   945.21  1001.34
eigval :     1012.87  1031.17  1037.95  1068.43  1083.14  1085.58
eigval :     1120.17  1135.05  1157.03  1172.93  1179.24  1204.91
eigval :     1235.19  1240.39  1255.01  1296.68  1317.85  1331.59
eigval :     1342.43  1354.94  1365.42  1424.93  1466.07  1470.63
eigval :     1487.13  1500.61  1563.75  1663.36  2897.46  2939.31
eigval :     2976.70  2985.26  2996.95  3003.19  3013.02  3310.84
eigval :     3369.89  3379.01  3403.42  3408.58  3457.17  3509.70
           -------------------------------------------------
          |                Property Printout                |
           -------------------------------------------------

    * Orbital Energies and Occupations

         #    Occupation            Energy/Eh            Energy/eV
      -------------------------------------------------------------
         1        2.0000           -0.6995117             -19.0347
       ...           ...                  ...                  ...
        23        2.0000           -0.4890526             -13.3078
        24        2.0000           -0.4850941             -13.2001
        25        2.0000           -0.4771942             -12.9851
        26        2.0000           -0.4638169             -12.6211
        27        2.0000           -0.4475115             -12.1774
        28        2.0000           -0.4351260             -11.8404
        29        2.0000           -0.4317309             -11.7480
        30        2.0000           -0.4277678             -11.6402
        31        2.0000           -0.4256747             -11.5832
        32        2.0000           -0.4067587             -11.0685
        33        2.0000           -0.3865000             -10.5172
        34        2.0000           -0.3767115             -10.2508
        35        2.0000           -0.3595608              -9.7841 (HOMO)
        36                         -0.1907235              -5.1899 (LUMO)
        37                         -0.0217307              -0.5913
        38                          0.0298546               0.8124
        39                          0.0377056               1.0260
        40                          0.0636091               1.7309
        41                          0.0666713               1.8142
        42                          0.0812487               2.2109
        43                          0.0981226               2.6701
        44                          0.1107954               3.0149
        45                          0.1207917               3.2869
        46                          0.1378104               3.7500
       ...                                ...                  ...
        62                          0.5529039              15.0453
      -------------------------------------------------------------
                  HL-Gap            0.1688373 Eh            4.5943 eV
             Fermi-level           -0.2751422 Eh           -7.4870 eV

     #   Z          covCN         q      C6AA      α(0)
     1   6 C        3.805    -0.067    21.787     6.645
     2   6 C        3.807    -0.072    21.872     6.658
     3   6 C        3.784     0.048    19.791     6.337
     4   6 C        3.604     0.326    16.202     5.818
     5   8 O        1.657    -0.470    22.260     6.369
     6   8 O        1.656    -0.466    22.169     6.356
     7   7 N        2.632    -0.341    28.785     7.968
     8   6 C        3.744     0.005    20.560     6.468
     9   7 N        2.750    -0.179    24.875     7.407
    10   6 C        2.750     0.240    22.992     7.852
    11   7 N        2.641    -0.312    28.027     7.863
    12   7 N        1.789    -0.463    33.200     8.534
    13   1 H        0.924     0.042     2.417     2.431
    14   1 H        0.924     0.056     2.250     2.346
    15   1 H        0.925     0.046     2.367     2.406
    16   1 H        0.925     0.060     2.194     2.316
    17   1 H        0.924     0.040     2.453     2.449
    18   1 H        0.804     0.320     0.663     1.279
    19   1 H        0.860     0.158     1.351     1.821
    20   1 H        0.860     0.156     1.360     1.827
    21   1 H        0.924     0.038     2.478     2.462
    22   1 H        0.924     0.051     2.313     2.378
    23   1 H        0.860     0.171     1.270     1.765
    24   1 H        0.860     0.169     1.278     1.771
    25   1 H        0.860     0.123     1.599     1.981
    26   1 H        0.804     0.322     0.658     1.274

 Mol. C6AA /au·bohr⁶  :       5782.449820
 Mol. C8AA /au·bohr⁸  :     123618.319079
 Mol. α(0) /au        :        112.781311


Wiberg/Mayer (AO) data.
largest (>0.10) Wiberg bond orders for each atom

 ---------------------------------------------------------------------------
     #   Z sym  total        # sym  WBO       # sym  WBO       # sym  WBO
 ---------------------------------------------------------------------------
     1   6 C    3.995 --     2 C    1.006     8 C    1.001    14 H    0.977
                            13 H    0.976
     2   6 C    3.995 --     1 C    1.006     3 C    0.991    15 H    0.980
                            16 H    0.974
     3   6 C    3.987 --     7 N    1.033     2 C    0.991    17 H    0.965
                             4 C    0.936
     4   6 C    3.923 --     5 O    0.999     6 O    0.994     3 C    0.936
                             9 N    0.923
     5   8 O    1.973 --     4 C    0.999    26 H    0.841
     6   8 O    1.979 --     4 C    0.994    18 H    0.853
     7   7 N    3.013 --     3 C    1.033    20 H    0.958    19 H    0.958
     8   6 C    3.974 --     1 C    1.001     9 N    0.984    21 H    0.969
                            22 H    0.968
     9   7 N    3.382 --    10 C    1.175     8 C    0.984     4 C    0.923
                            12 N    0.120
    10   6 C    3.962 --    12 N    1.606     9 N    1.175    11 N    1.132
    11   7 N    3.232 --    10 C    1.132    23 H    0.951    24 H    0.947
                            12 N    0.131
    12   7 N    2.939 --    10 C    1.606    25 H    0.954    11 N    0.131
                             9 N    0.120
    13   1 H    0.997 --     1 C    0.976
    14   1 H    0.997 --     1 C    0.977
    15   1 H    0.998 --     2 C    0.980
    16   1 H    0.996 --     2 C    0.974
    17   1 H    0.998 --     3 C    0.965
    18   1 H    0.897 --     6 O    0.853
    19   1 H    0.975 --     7 N    0.958
    20   1 H    0.976 --     7 N    0.958
    21   1 H    0.999 --     8 C    0.969
    22   1 H    0.997 --     8 C    0.968
    23   1 H    0.970 --    11 N    0.951
    24   1 H    0.971 --    11 N    0.947
    25   1 H    0.985 --    12 N    0.954
    26   1 H    0.896 --     5 O    0.841
 ---------------------------------------------------------------------------

Topologies differ in total number of bonds
Writing topology from bond orders to xtbtopo.mol

molecular dipole:
                 x           y           z       tot (Debye)
 q only:        0.633       1.005      -0.212
   full:        1.750       1.010      -0.306       5.194
molecular quadrupole (traceless):
                xx          xy          yy          xz          yz          zz
 q only:        3.001       0.689       0.850      -3.094      -2.053      -3.852
  q+dip:        3.525      -0.381      -0.115      -5.122      -4.032      -3.410
   full:        3.547      -0.359       0.133      -5.355      -3.487      -3.680

           -------------------------------------------------
          |                Geometry Summary                 |
           -------------------------------------------------

      molecular mass/u    :      174.2012086
   center of mass at/Å    :        0.0000037      -0.0000053       0.0000003
  moments of inertia/u·Å² :        0.3315075E+03   0.5948219E+03   0.7863229E+03
rotational constants/cm⁻¹ :        0.5085143E-01   0.2834064E-01   0.2143856E-01

 * 24 selected distances

     #   Z          #   Z                                           value/Å
     1   6 C        2   6 C                                       1.5286387
     2   6 C        3   6 C                                       1.5329911 (max)
     4   6 C        5   8 O                                       1.3883319
     4   6 C        6   8 O                                       1.3900389
     3   6 C        7   7 N                                       1.4469965
     1   6 C        8   6 C                                       1.5268518
     4   6 C        9   7 N                                       1.4698583
     8   6 C        9   7 N                                       1.4518941
     9   7 N       10   6 C                                       1.3662138
    10   6 C       11   7 N                                       1.3820511
    10   6 C       12   7 N                                       1.2836498
     1   6 C       13   1 H                                       1.0904168
     1   6 C       14   1 H                                       1.0909429
     2   6 C       15   1 H                                       1.0897200
     2   6 C       16   1 H                                       1.0894190
     3   6 C       17   1 H                                       1.0952072
     6   8 O       18   1 H                                       0.9732130 (min)
     7   7 N       19   1 H                                       1.0153848
     7   7 N       20   1 H                                       1.0164246
     8   6 C       21   1 H                                       1.0973676
     8   6 C       22   1 H                                       1.0913800
    11   7 N       23   1 H                                       1.0083877
    11   7 N       24   1 H                                       1.0067490
     5   8 O       26   1 H                                       0.9756779

 * 6 distinct bonds (by element types)

   Z      Z             #   av. dist./Å        max./Å        min./Å
   1 H    6 C           7     1.0920648     1.0973676     1.0894190
   6 C    6 C           3     1.5294939     1.5329911     1.5268518
   1 H    7 N           4     1.0117365     1.0164246     1.0067490
   6 C    7 N           6     1.4001106     1.4698583     1.2836498
   1 H    8 O           2     0.9744455     0.9756779     0.9732130
   6 C    8 O           2     1.3891854     1.3900389     1.3883319

           -------------------------------------------------
          |               Frequency Printout                |
           -------------------------------------------------
 projected vibrational frequencies (cm⁻¹)
eigval :       -0.00    -0.00    -0.00     0.00     0.00     0.00
eigval :       73.57    84.34   108.97   137.99   193.25   243.82
eigval :      280.33   297.80   322.36   326.22   373.21   403.03
eigval :      407.04   445.80   484.91   506.45   520.78   531.96
eigval :      564.23   590.12   627.92   641.76   662.75   739.81
eigval :      744.70   858.62   874.03   936.73   945.21  1001.34
eigval :     1012.87  1031.17  1037.95  1068.43  1083.14  1085.58
eigval :     1120.17  1135.05  1157.03  1172.93  1179.24  1204.91
eigval :     1235.19  1240.39  1255.01  1296.68  1317.85  1331.59
eigval :     1342.43  1354.94  1365.42  1424.93  1466.07  1470.63
eigval :     1487.13  1500.61  1563.75  1663.36  2897.46  2939.31
eigval :     2976.70  2985.26  2996.95  3003.19  3013.02  3310.84
eigval :     3369.89  3379.01  3403.42  3408.58  3457.17  3509.70
 reduced masses (amu)
   1: 11.54   2: 11.93   3: 12.48   4: 12.46   5: 11.74   6: 12.48   7: 10.46   8:  9.81
   9: 12.46  10: 11.48  11: 11.73  12: 12.95  13:  7.59  14: 11.56  15:  6.40  16:  6.86
  17: 10.38  18:  6.08  19:  9.36  20: 10.34  21:  8.41  22: 10.11  23:  5.54  24:  9.21
  25:  5.80  26:  7.92  27:  9.64  28:  6.66  29:  9.23  30:  4.32  31:  9.88  32:  5.82
  33:  9.23  34:  6.92  35:  8.50  36:  6.55  37:  7.20  38:  6.32  39:  5.78  40:  8.68
  41: 10.13  42:  8.44  43:  7.18  44:  7.48  45:  6.34  46:  5.15  47:  7.25  48:  5.35
  49:  5.13  50:  6.53  51:  5.10  52:  4.04  53:  3.55  54:  4.10  55:  4.44  56:  5.18
  57:  6.50  58:  9.52  59:  1.91  60:  1.88  61:  2.02  62:  4.50  63:  2.08  64: 12.01
  65:  1.76  66:  1.74  67:  1.69  68:  1.93  69:  1.63  70:  1.83  71:  1.60  72:  1.86
  73:  1.86  74:  1.55  75:  1.86  76:  2.04  77:  1.47  78:  2.14
 IR intensities (km·mol⁻¹)
   1:  1.32   2:  1.28   3:  0.33   4:  0.01   5:  0.47   6:  0.19   7:  0.70   8:  1.61
   9:  3.54  10:  4.75  11:  6.67  12:  1.04  13:  2.03  14:  1.99  15: 35.62  16: 24.54
  17:  6.26  18: 21.06  19:  2.25  20: 25.52  21: 10.86  22:  4.56  23: 68.73  24: 50.02
  25:128.31  26: 69.67  27: 28.87  28:256.28  29: 69.00  30:106.75  31: 15.35  32:  5.96
  33: 14.65  34: 30.66  35: 13.83  36: 78.23  37:152.51  38: 23.79  39: 10.73  40: 15.03
  41:123.47  42:102.54  43: 27.40  44: 56.60  45: 24.38  46:155.76  47:110.63  48: 64.47
  49: 75.68  50: 57.26  51: 57.15  52: 61.42  53:  9.21  54:  9.91  55:  5.27  56:  5.48
  57: 27.33  58:293.00  59: 11.22  60:  2.38  61:  2.13  62:224.42  63: 41.17  64:425.74
  65: 42.68  66: 39.72  67: 14.97  68: 16.05  69: 36.38  70: 59.37  71: 28.84  72: 91.09
  73:120.18  74:  3.56  75: 31.63  76:  1.39  77:  2.16  78:  0.66
 Raman intensities (amu)
   1:  0.00   2:  0.00   3:  0.00   4:  0.00   5:  0.00   6:  0.00   7:  0.00   8:  0.00
   9:  0.00  10:  0.00  11:  0.00  12:  0.00  13:  0.00  14:  0.00  15:  0.00  16:  0.00
  17:  0.00  18:  0.00  19:  0.00  20:  0.00  21:  0.00  22:  0.00  23:  0.00  24:  0.00
  25:  0.00  26:  0.00  27:  0.00  28:  0.00  29:  0.00  30:  0.00  31:  0.00  32:  0.00
  33:  0.00  34:  0.00  35:  0.00  36:  0.00  37:  0.00  38:  0.00  39:  0.00  40:  0.00
  41:  0.00  42:  0.00  43:  0.00  44:  0.00  45:  0.00  46:  0.00  47:  0.00  48:  0.00
  49:  0.00  50:  0.00  51:  0.00  52:  0.00  53:  0.00  54:  0.00  55:  0.00  56:  0.00
  57:  0.00  58:  0.00  59:  0.00  60:  0.00  61:  0.00  62:  0.00  63:  0.00  64:  0.00
  65:  0.00  66:  0.00  67:  0.00  68:  0.00  69:  0.00  70:  0.00  71:  0.00  72:  0.00
  73:  0.00  74:  0.00  75:  0.00  76:  0.00  77:  0.00  78:  0.00
 output can be read by thermo (or use thermo option).
 writing <g98.out> molden fake output.
 recommended (thermochemical) frequency scaling factor: 1.0
           -------------------------------------------------
          |             Thermodynamic Functions             |
           -------------------------------------------------

Molecule has no symmetry elements
It seems to be the C1 point group
c1  symmetry found (for desy threshold:  0.10E+00) used in thermo

          ...................................................
          :                      SETUP                      :
          :.................................................:
          :  # frequencies                          72      :
          :  # imaginary freq.                       0      :
          :  linear?                             false      :
          :  only rotor calc.                    false      :
          :  symmetry                               c1      :
          :  rotational number                       1      :
          :  scaling factor                  1.0000000      :
          :  rotor cutoff                   50.0000000 cm⁻¹ :
          :  imag. cutoff                  -20.0000000 cm⁻¹ :
          :.................................................:

    mode    ω/cm⁻¹     T·S(HO)/kcal·mol⁻¹    T·S(FR)/kcal·mol⁻¹   T·S(vib)
   ------------------------------------------------------------------------
       1     73.57    -1.20910 ( 82.42%)    -0.94200 ( 17.58%)    -1.16215
       2     84.34    -1.12920 ( 89.00%)    -0.90158 ( 11.00%)    -1.10417
       3    108.97    -0.98010 ( 95.75%)    -0.82570 (  4.25%)    -0.97354
       4    137.99    -0.84421 ( 98.31%)    -0.75574 (  1.69%)    -0.84271
       5    193.25    -0.65487 ( 99.55%)    -0.65600 (  0.45%)    -0.65487
       6    243.82    -0.52916 ( 99.82%)    -0.58714 (  0.18%)    -0.52926
       7    280.33    -0.45666 ( 99.90%)    -0.54581 (  0.10%)    -0.45675
       8    297.80    -0.42613 ( 99.92%)    -0.52791 (  0.08%)    -0.42621
   ------------------------------------------------------------------------

   temp. (K)  partition function   enthalpy   heat capacity  entropy
                                   cal/mol     cal/K/mol   cal/K/mol   J/K/mol
 298.15  VIB  0.142E+04             5877.116     42.455     33.868
         ROT  0.951E+06              888.752      2.981     30.337
         INT  0.135E+10             6765.868     45.436     64.204
         TR   0.222E+28             1481.254      4.968     41.354
         TOT                        8247.1221    50.4045   105.5578   441.6538

       T/K    H(0)-H(T)+PV         H(T)/Eh          T*S/Eh         G(T)/Eh
   ------------------------------------------------------------------------
    298.15    0.131426E-01    0.229988E+00    0.501539E-01    0.179834E+00
   ------------------------------------------------------------------------

         :::::::::::::::::::::::::::::::::::::::::::::::::::::
         ::                  THERMODYNAMIC                  ::
         :::::::::::::::::::::::::::::::::::::::::::::::::::::
         :: total free energy         -39.653462363090 Eh   ::
         ::.................................................::
         :: total energy              -39.833296174492 Eh   ::
         :: zero point energy           0.216845101245 Eh   ::
         :: G(RRHO) w/o ZPVE           -0.037011289843 Eh   ::
         :: G(RRHO) contrib.            0.179833811402 Eh   ::
         :::::::::::::::::::::::::::::::::::::::::::::::::::::

optimized geometry written to: xtbopt.xyz


           -------------------------------------------------
          | TOTAL ENERGY              -39.833296174492 Eh   |
          | TOTAL ENTHALPY            -39.603308447615 Eh   |
          | TOTAL FREE ENERGY         -39.653462363090 Eh   |
          | GRADIENT NORM               0.000057173511 Eh/α |
          | HOMO-LUMO GAP               4.594297564386 eV   |
           -------------------------------------------------

------------------------------------------------------------------------
 * finished run on 2025/07/30 at 12:34:44.125     
------------------------------------------------------------------------
 total:
 * wall-time:     0 d,  0 h,  0 min,  1.052 sec
 *  cpu-time:     0 d,  0 h,  0 min,  8.225 sec
 * ratio c/w:     7.818 speedup
 SCF:
 * wall-time:     0 d,  0 h,  0 min,  0.018 sec
 *  cpu-time:     0 d,  0 h,  0 min,  0.144 sec
 * ratio c/w:     7.932 speedup
 ANC optimizer:
 * wall-time:     0 d,  0 h,  0 min,  0.049 sec
 *  cpu-time:     0 d,  0 h,  0 min,  0.391 sec
 * ratio c/w:     7.940 speedup
 analytical hessian:
 * wall-time:     0 d,  0 h,  0 min,  0.966 sec
 *  cpu-time:     0 d,  0 h,  0 min,  7.553 sec
 * ratio c/w:     7.818 speedup

