26
 energy: -39.833296174492 gnorm: 0.000057174124 xtb: 6.6.0 (8843059)
C           -0.80195428543663        2.02529825411997        0.60451126458521
C           -2.06208271439721        1.27010011475411        0.18203298132712
C           -1.72203608159151       -0.04424490839714       -0.52995491172728
C           -0.37263638341638       -0.62196111230632       -0.03633361373496
O           -0.13139598578924       -1.77263166419450       -0.77472744755269
O           -0.45993313080667       -0.90602528524249        1.32156718677964
N           -2.80387444776572       -0.99033695013891       -0.36162748416300
C            0.34422387099002        1.74654456072536       -0.36494624983730
N            0.70570875005043        0.34196178469150       -0.29807306022662
C            1.97698255921314       -0.07245438217341       -0.01760577453375
N            2.99505409774908        0.80954974741260       -0.32690186765697
N            2.15483536422317       -1.22756538684823        0.51328362067317
H           -0.99461953146718        3.09782833203746        0.64410806521733
H           -0.49156155703388        1.69405536029446        1.59652475923677
H           -2.66895189158573        1.87568511831313       -0.49062295723355
H           -2.66553085855677        1.03969680551467        1.05930048989614
H           -1.59714495600503        0.12348656134982       -1.60501164043246
H            0.39911475510064       -1.28725434220679        1.57424185349416
H           -2.58140367661763       -1.83716401244479       -0.87582278276187
H           -2.85893235615152       -1.24571894746446        0.62064915375434
H            0.04450965534888        2.00562834393008       -1.38830465582415
H            1.20985100658530        2.34857052001551       -0.08322932217430
H            3.92160111350174        0.41253194328070       -0.29982540900492
H            2.84318473582836        1.44309820302261       -1.09442744327642
H            3.12880142248268       -1.48387628638008        0.62795566822447
H            0.71904027370991       -2.12766255785871       -0.45432379650126
