26
 energy: -39.833296174491 gnorm: 0.000057160149 xtb: 6.6.0 (8843059)
C           -0.80196700000000        2.02529300000000        0.60451200000000
C           -2.06209000000000        1.27008900000000        0.18202800000000
C           -1.72203400000000       -0.04425300000000       -0.52996100000000
C           -0.37263300000000       -0.62196300000000       -0.03633600000000
O           -0.13138400000000       -1.77263100000000       -0.77473100000000
O           -0.45993300000000       -0.90603000000000        1.32156400000000
N           -2.80386800000000       -0.99035100000000       -0.36163900000000
C            0.34421600000000        1.74654700000000       -0.36494200000000
N            0.70570800000000        0.34196600000000       -0.29807000000000
C            1.97698300000000       -0.07244400000000       -0.01759900000000
N            2.99505100000000        0.80956600000000       -0.32689000000000
N            2.15484000000000       -1.22755500000000        0.51328900000000
H           -0.99463800000000        3.09782200000000        0.64411000000000
H           -0.49157600000000        1.69405000000000        1.59652600000000
H           -2.66896000000000        1.87567200000000       -0.49062900000000
H           -2.66554000000000        1.03968100000000        1.05929300000000
H           -1.59714000000000        0.12348100000000       -1.60501700000000
H            0.39911600000000       -1.28725500000000        1.57424100000000
H           -2.58139100000000       -1.83717600000000       -0.87583500000000
H           -2.85892800000000       -1.24573500000000        0.62063700000000
H            0.04450400000000        2.00563100000000       -1.38830100000000
H            1.20983900000000        2.34857700000000       -0.08322100000000
H            3.92160000000000        0.41255300000000       -0.29981100000000
H            2.84318100000000        1.44311500000000       -1.09441500000000
H            3.12880700000000       -1.48386100000000        0.62796400000000
H            0.71905300000000       -2.12765800000000       -0.45432500000000
