 Entering Gaussian System
 *********************************************
 Gaussian 98:
 frequency output generated by the xtb code
 *********************************************
                         Standard orientation:
 --------------------------------------------------------------------
  Center     Atomic     Atomic              Coordinates (Angstroms)
  Number     Number      Type              X           Y           Z
 --------------------------------------------------------------------
    1          6             0       -1.213411   -1.345404   -0.517945
    2          6             0       -0.710257   -0.240836    0.417575
    3          6             0        0.758346    0.015276    0.087332
    4          8             0        1.658510   -0.747554    0.314504
    5          8             0        0.953613    1.199468   -0.511868
    6          7             0       -1.574800    0.915918    0.322280
    7          1             0       -2.243094   -1.581835   -0.267720
    8          1             0       -1.173752   -1.008894   -1.551929
    9          1             0       -0.598412   -2.234091   -0.409948
   10          1             0       -0.745616   -0.610404    1.449793
   11          1             0        1.892685    1.317690   -0.723631
   12          1             0       -1.256371    1.655995    0.937670
   13          1             0       -1.568433    1.280361   -0.624598
 --------------------------------------------------------------------
     1 basis functions        1 primitive gaussians
     1 alpha electrons        1 beta electrons
 
 Harmonic frequencies (cm**-1), IR intensities (km*mol⁻¹),
 Raman scattering activities (A**4/amu), Raman depolarization ratios,
 reduced masses (AMU), force constants (mDyne/A) and normal coordinates:
                      1                      2                      3
                        a                      a                      a 
 Frequencies --    23.1825               201.7178               215.0315
 Red. masses --    12.9037                 1.9508                 9.9683
 Frc consts  --     0.0000                 0.0000                 0.0000
 IR Inten    --     2.0033                 1.1240                 4.0474
 Raman Activ --     0.0000                 0.0000                 0.0000
 Depolar     --     0.0000                 0.0000                 0.0000
 Atom AN      X      Y      Z        X      Y      Z        X      Y      Z
   1   6    -0.01   0.21  -0.32    -0.00   0.03  -0.02     0.52   0.08   0.01
   2   6     0.01  -0.08   0.01     0.02  -0.05   0.06    -0.04   0.20   0.19
   3   6     0.00  -0.02   0.04     0.00  -0.03   0.03    -0.07   0.08   0.08
   4   8     0.09   0.20   0.45     0.10   0.04  -0.09    -0.31  -0.26  -0.18
   5   8    -0.12  -0.28  -0.49    -0.17   0.00   0.03     0.13  -0.08  -0.16
   6   7     0.03  -0.04   0.34     0.08  -0.00   0.02    -0.29   0.01   0.08
   7   1    -0.01   0.06  -0.13    -0.18   0.41  -0.35     0.13  -0.03  -0.14
   8   1     0.02   0.14  -0.06     0.51  -0.18  -0.05     0.28   0.02   0.00
   9   1    -0.02   0.04  -0.15    -0.35  -0.19   0.37     0.19   0.06   0.09
  10   1    -0.00  -0.11  -0.03    -0.02  -0.01   0.01    -0.03   0.05   0.05
  11   1    -0.03  -0.06  -0.13    -0.05   0.02  -0.02     0.02  -0.11  -0.13
  12   1     0.00  -0.06   0.16     0.08   0.03  -0.06    -0.23  -0.03   0.15
  13   1     0.02   0.07   0.12    -0.03  -0.05  -0.01     0.04   0.09   0.06
                      4                      5                      6
                        a                      a                      a 
 Frequencies --   256.2216               276.1927               364.7544
 Red. masses --     5.1421                 8.7246                 9.8596
 Frc consts  --     0.0000                 0.0000                 0.0000
 IR Inten    --    31.9461                14.6619                 4.8292
 Raman Activ --     0.0000                 0.0000                 0.0000
 Depolar     --     0.0000                 0.0000                 0.0000
 Atom AN      X      Y      Z        X      Y      Z        X      Y      Z
   1   6     0.02   0.05  -0.04    -0.26  -0.11   0.09    -0.15   0.40   0.04
   2   6     0.02   0.05  -0.07     0.04   0.01  -0.18     0.10   0.05   0.27
   3   6     0.02   0.07  -0.09     0.07   0.11  -0.18     0.17  -0.04   0.20
   4   8    -0.12  -0.04   0.09    -0.02   0.09   0.10     0.30  -0.03  -0.14
   5   8     0.32   0.05  -0.07     0.48   0.14  -0.08     0.01  -0.12   0.02
   6   7    -0.23  -0.12   0.27    -0.28  -0.22   0.07    -0.29  -0.30  -0.27
   7   1     0.00   0.02  -0.02    -0.11   0.13   0.04    -0.05   0.18   0.03
   8   1     0.02  -0.00  -0.02    -0.02  -0.14  -0.01    -0.08   0.25   0.05
   9   1    -0.01   0.01  -0.00    -0.19  -0.10   0.13    -0.11   0.05  -0.15
  10   1     0.07  -0.00  -0.02     0.09  -0.00  -0.05    -0.01   0.03   0.08
  11   1     0.10  -0.02   0.04     0.15  -0.01   0.08    -0.02  -0.05  -0.10
  12   1     0.26   0.17  -0.34    -0.31  -0.18   0.29    -0.27   0.02  -0.10
  13   1    -0.59  -0.34  -0.05     0.11   0.18   0.11    -0.03  -0.17  -0.10
                      7                      8                      9
                        a                      a                      a 
 Frequencies --   517.6857               552.5231               621.5291
 Red. masses --    12.3626                10.4864                 4.4927
 Frc consts  --     0.0000                 0.0000                 0.0000
 IR Inten    --     9.2476                52.8203                95.4396
 Raman Activ --     0.0000                 0.0000                 0.0000
 Depolar     --     0.0000                 0.0000                 0.0000
 Atom AN      X      Y      Z        X      Y      Z        X      Y      Z
   1   6    -0.01  -0.10  -0.03    -0.10  -0.14  -0.08    -0.07  -0.12  -0.08
   2   6    -0.27   0.17  -0.16    -0.26  -0.24   0.25     0.07   0.05  -0.22
   3   6     0.07  -0.23   0.05    -0.25   0.16   0.25     0.20   0.14   0.26
   4   8     0.52   0.14  -0.14    -0.01   0.37  -0.25     0.02  -0.16   0.06
   5   8     0.03  -0.30   0.12     0.37  -0.03  -0.02    -0.05   0.16   0.13
   6   7    -0.33   0.32   0.11     0.11   0.00  -0.02    -0.03   0.03   0.03
   7   1     0.02  -0.13  -0.04    -0.03  -0.08  -0.09    -0.01   0.02   0.09
   8   1     0.02  -0.12  -0.04     0.01   0.04   0.00    -0.10  -0.14  -0.06
   9   1     0.09   0.05   0.10    -0.01  -0.04  -0.06    -0.04  -0.04   0.03
  10   1    -0.14   0.06  -0.04    -0.13  -0.09   0.06    -0.05  -0.03  -0.08
  11   1     0.02  -0.06   0.08     0.11  -0.37  -0.12    -0.16  -0.21  -0.75
  12   1    -0.05   0.05   0.05     0.13   0.00  -0.06     0.03  -0.02   0.02
  13   1    -0.19   0.15   0.05     0.14  -0.07  -0.03    -0.10   0.06   0.03
                     10                     11                     12
                        a                      a                      a 
 Frequencies --   715.7336               800.1367               941.5636
 Red. masses --     9.9232                10.0664                 6.9351
 Frc consts  --     0.0000                 0.0000                 0.0000
 IR Inten    --   113.8917                29.7306                73.3155
 Raman Activ --     0.0000                 0.0000                 0.0000
 Depolar     --     0.0000                 0.0000                 0.0000
 Atom AN      X      Y      Z        X      Y      Z        X      Y      Z
   1   6     0.08   0.13   0.10     0.15   0.16   0.04     0.19  -0.23  -0.05
   2   6    -0.01   0.01   0.07     0.33   0.14  -0.33     0.26  -0.07   0.06
   3   6    -0.21  -0.33  -0.62    -0.29   0.05   0.17    -0.02  -0.01  -0.04
   4   8     0.01   0.20   0.17    -0.16   0.25  -0.14    -0.02   0.02   0.00
   5   8     0.05   0.02   0.32    -0.09  -0.37   0.16    -0.02  -0.07   0.04
   6   7     0.01  -0.03  -0.02     0.13  -0.14  -0.02    -0.47   0.28   0.04
   7   1     0.01  -0.01  -0.07     0.06   0.20   0.25     0.01   0.25   0.13
   8   1     0.08   0.11   0.05    -0.11  -0.12  -0.04    -0.09   0.11   0.03
   9   1     0.05   0.05  -0.00    -0.04  -0.00   0.07    -0.22  -0.27  -0.28
  10   1     0.12   0.07   0.05     0.07  -0.02  -0.11     0.13   0.01   0.03
  11   1    -0.05  -0.28  -0.35     0.03  -0.28   0.14    -0.00  -0.02   0.02
  12   1    -0.04   0.00  -0.00    -0.04  -0.05   0.05     0.29   0.04  -0.13
  13   1     0.03  -0.02  -0.01    -0.14   0.04   0.03     0.31   0.07  -0.01
                     13                     14                     15
                        a                      a                      a 
 Frequencies --   957.0461               991.7431              1051.9628
 Red. masses --     4.8997                 4.3192                 5.8614
 Frc consts  --     0.0000                 0.0000                 0.0000
 IR Inten    --    73.9206                 2.9156               132.8095
 Raman Activ --     0.0000                 0.0000                 0.0000
 Depolar     --     0.0000                 0.0000                 0.0000
 Atom AN      X      Y      Z        X      Y      Z        X      Y      Z
   1   6    -0.07  -0.39  -0.11    -0.09  -0.06  -0.33     0.31   0.04  -0.03
   2   6     0.20   0.10   0.15     0.17   0.15   0.28    -0.18  -0.13   0.14
   3   6    -0.02   0.05   0.01    -0.02  -0.02  -0.10    -0.10  -0.24  -0.06
   4   8    -0.06   0.03  -0.01    -0.01   0.02   0.02     0.09  -0.07   0.05
   5   8    -0.03  -0.06   0.03    -0.01  -0.03   0.03     0.04   0.31  -0.13
   6   7     0.22   0.17  -0.03    -0.01   0.13   0.12     0.12   0.08  -0.05
   7   1    -0.07  -0.04  -0.17     0.03  -0.06   0.11     0.08   0.32   0.33
   8   1     0.05   0.19   0.06    -0.13  -0.37  -0.20    -0.19  -0.09  -0.04
   9   1    -0.12  -0.20  -0.29     0.04   0.05   0.17    -0.16  -0.16  -0.05
  10   1     0.11   0.23   0.11     0.10  -0.28  -0.04    -0.40  -0.15  -0.02
  11   1     0.00  -0.05   0.02     0.00  -0.01   0.02     0.04  -0.05   0.04
  12   1    -0.42   0.12   0.12    -0.34   0.30  -0.12    -0.15  -0.00   0.08
  13   1    -0.41   0.05   0.01     0.23  -0.29  -0.10    -0.26   0.05   0.01
                     16                     17                     18
                        a                      a                      a 
 Frequencies --  1130.1660              1153.9429              1212.7350
 Red. masses --     8.0475                 7.2844                 7.4747
 Frc consts  --     0.0000                 0.0000                 0.0000
 IR Inten    --   209.2069                10.9553                46.3160
 Raman Activ --     0.0000                 0.0000                 0.0000
 Depolar     --     0.0000                 0.0000                 0.0000
 Atom AN      X      Y      Z        X      Y      Z        X      Y      Z
   1   6     0.11   0.02   0.01    -0.01  -0.13  -0.28     0.11  -0.11   0.17
   2   6    -0.20  -0.13   0.07    -0.09   0.51   0.21    -0.25   0.29  -0.34
   3   6     0.12   0.24  -0.16    -0.06  -0.09  -0.02    -0.22  -0.26   0.22
   4   8    -0.16   0.18  -0.06     0.01   0.04  -0.00     0.06   0.02  -0.03
   5   8     0.17  -0.45   0.19     0.04  -0.03   0.01     0.10   0.09  -0.07
   6   7     0.08   0.04  -0.03     0.09  -0.35   0.04     0.12  -0.09   0.19
   7   1     0.02   0.11   0.10     0.01   0.05   0.07    -0.02   0.10  -0.05
   8   1    -0.06  -0.01  -0.01    -0.12  -0.15  -0.11     0.03   0.20   0.11
   9   1    -0.07  -0.06  -0.02    -0.06  -0.06  -0.01    -0.06  -0.11  -0.17
  10   1    -0.07  -0.10  -0.01    -0.15   0.46   0.17     0.15  -0.09  -0.13
  11   1    -0.12   0.58  -0.26    -0.02   0.13  -0.03    -0.03   0.21  -0.11
  12   1    -0.07  -0.00   0.04     0.26  -0.17  -0.00    -0.19   0.17  -0.08
  13   1    -0.07  -0.02  -0.01     0.10   0.02   0.04     0.25  -0.28  -0.06
                     19                     20                     21
                        a                      a                      a 
 Frequencies --  1238.9893              1253.4184              1315.7867
 Red. masses --     8.8109                 4.1980                 4.2729
 Frc consts  --     0.0000                 0.0000                 0.0000
 IR Inten    --    82.0078                 7.8804                17.3112
 Raman Activ --     0.0000                 0.0000                 0.0000
 Depolar     --     0.0000                 0.0000                 0.0000
 Atom AN      X      Y      Z        X      Y      Z        X      Y      Z
   1   6    -0.12   0.06  -0.06     0.12   0.12  -0.15     0.00  -0.06   0.02
   2   6     0.37  -0.15   0.08    -0.35  -0.27  -0.00    -0.14   0.37   0.25
   3   6    -0.37  -0.41   0.26    -0.01   0.00   0.12    -0.01  -0.01   0.00
   4   8    -0.03   0.11  -0.05     0.06  -0.05  -0.00     0.05  -0.03   0.01
   5   8     0.20   0.12  -0.09    -0.01   0.05  -0.03    -0.01   0.00   0.00
   6   7    -0.10   0.09  -0.10     0.04   0.08  -0.04     0.02  -0.05  -0.23
   7   1     0.00  -0.10  -0.01     0.06   0.11   0.17    -0.02  -0.03  -0.07
   8   1     0.06  -0.07  -0.04    -0.09  -0.12  -0.09    -0.02  -0.01   0.00
   9   1     0.09   0.10   0.10    -0.03   0.01   0.11    -0.06  -0.06  -0.07
  10   1     0.07   0.01   0.04     0.69   0.32   0.18     0.39  -0.57  -0.16
  11   1    -0.05   0.42  -0.19     0.01  -0.04   0.00     0.00  -0.01   0.02
  12   1     0.06  -0.04   0.02    -0.05  -0.02   0.06     0.22  -0.24   0.10
  13   1    -0.14   0.18   0.03    -0.05  -0.02  -0.02    -0.20   0.17   0.02
                     22                     23                     24
                        a                      a                      a 
 Frequencies --  1391.0909              1477.9296              1487.8098
 Red. masses --     3.0921                 1.5742                 1.5790
 Frc consts  --     0.0000                 0.0000                 0.0000
 IR Inten    --     9.2305                 4.4183                 3.7654
 Raman Activ --     0.0000                 0.0000                 0.0000
 Depolar     --     0.0000                 0.0000                 0.0000
 Atom AN      X      Y      Z        X      Y      Z        X      Y      Z
   1   6     0.14   0.34   0.22     0.12   0.04  -0.18    -0.18   0.10  -0.09
   2   6     0.02  -0.04  -0.04     0.03   0.02  -0.02    -0.04   0.04  -0.02
   3   6    -0.00  -0.02   0.03     0.00  -0.01   0.01     0.00   0.01  -0.01
   4   8    -0.02   0.01  -0.01    -0.01   0.01  -0.00     0.01  -0.00   0.00
   5   8     0.00   0.01  -0.01     0.00  -0.00   0.00    -0.00  -0.00   0.00
   6   7    -0.00   0.01   0.02    -0.00  -0.02   0.01     0.00   0.01   0.00
   7   1     0.04  -0.42  -0.30     0.12  -0.41   0.06     0.19  -0.27   0.56
   8   1    -0.14  -0.44  -0.14    -0.19   0.44   0.12     0.66  -0.02   0.01
   9   1    -0.36  -0.26  -0.32    -0.41  -0.22   0.55    -0.15  -0.11  -0.21
  10   1    -0.01   0.06   0.02    -0.02  -0.03  -0.02    -0.01  -0.02  -0.01
  11   1     0.00   0.00  -0.00    -0.00   0.00   0.00     0.00  -0.01   0.00
  12   1    -0.02   0.00   0.01    -0.01   0.03  -0.03     0.01  -0.03   0.03
  13   1     0.01  -0.03  -0.01     0.01   0.03   0.01     0.01  -0.05  -0.02
                     25                     26                     27
                        a                      a                      a 
 Frequencies --  1563.2884              1789.5269              2923.0074
 Red. masses --     2.1225                13.3279                 1.7411
 Frc consts  --     0.0000                 0.0000                 0.0000
 IR Inten    --    42.6983               408.9189                22.9453
 Raman Activ --     0.0000                 0.0000                 0.0000
 Depolar     --     0.0000                 0.0000                 0.0000
 Atom AN      X      Y      Z        X      Y      Z        X      Y      Z
   1   6    -0.00  -0.01  -0.01     0.00   0.01   0.01     0.00   0.01  -0.01
   2   6     0.10   0.02  -0.03     0.06  -0.01  -0.01    -0.01  -0.09   0.24
   3   6    -0.01  -0.02   0.01    -0.62   0.47  -0.13    -0.00  -0.01   0.01
   4   8    -0.00   0.00  -0.00     0.45  -0.37   0.11    -0.00   0.00  -0.00
   5   8     0.00   0.01  -0.00     0.03  -0.05   0.02     0.00   0.00  -0.00
   6   7    -0.06   0.26  -0.04     0.01  -0.00   0.00     0.00  -0.00   0.00
   7   1    -0.01  -0.01  -0.03     0.00  -0.02  -0.01    -0.01  -0.00   0.00
   8   1    -0.04   0.04   0.01    -0.01  -0.00   0.00    -0.00  -0.02   0.05
   9   1     0.00   0.01   0.06    -0.01  -0.00   0.00     0.01  -0.01  -0.00
  10   1    -0.06   0.05   0.00    -0.03   0.01  -0.00     0.04   0.33  -0.91
  11   1    -0.00  -0.00  -0.00    -0.02   0.09  -0.04    -0.00  -0.00   0.00
  12   1     0.10  -0.44   0.48     0.00   0.00  -0.00     0.00  -0.00  -0.00
  13   1    -0.03  -0.63  -0.24     0.01  -0.00  -0.00    -0.00  -0.01   0.01
                     28                     29                     30
                        a                      a                      a 
 Frequencies --  3032.2042              3055.5764              3058.9959
 Red. masses --     1.7457                 1.5590                 1.8611
 Frc consts  --     0.0000                 0.0000                 0.0000
 IR Inten    --    25.4058                11.8025                15.9563
 Raman Activ --     0.0000                 0.0000                 0.0000
 Depolar     --     0.0000                 0.0000                 0.0000
 Atom AN      X      Y      Z        X      Y      Z        X      Y      Z
   1   6    -0.02  -0.08   0.24     0.06  -0.21   0.04    -0.27   0.02   0.04
   2   6     0.00  -0.01   0.02     0.00  -0.01   0.00    -0.01  -0.00   0.00
   3   6    -0.00  -0.00   0.00     0.00  -0.00   0.00     0.00   0.00  -0.00
   4   8     0.00  -0.00  -0.00    -0.00   0.00  -0.00     0.00  -0.00   0.00
   5   8    -0.00   0.00  -0.00     0.00   0.00  -0.00     0.00  -0.00  -0.00
   6   7    -0.00  -0.00  -0.00    -0.00   0.00  -0.00     0.00   0.00   0.00
   7   1     0.05  -0.00   0.02     0.32   0.04  -0.07     0.85   0.20  -0.22
   8   1     0.04   0.31  -0.91     0.01  -0.03   0.02    -0.04  -0.01   0.06
   9   1    -0.01  -0.01   0.03    -0.53   0.74  -0.10     0.15  -0.27   0.04
  10   1     0.00   0.02  -0.05     0.00   0.01  -0.01     0.00   0.00  -0.00
  11   1     0.00   0.00   0.00    -0.00  -0.00   0.00    -0.00   0.00   0.00
  12   1     0.00   0.00   0.00     0.00  -0.00  -0.00    -0.00  -0.00  -0.00
  13   1    -0.00   0.00   0.00    -0.00  -0.00   0.00    -0.00   0.00  -0.00
                     31                     32                     33
                        a                      a                      a 
 Frequencies --  3396.9715              3425.1185              3451.8184
 Red. masses --     1.5158                 2.0704                 1.8500
 Frc consts  --     0.0000                 0.0000                 0.0000
 IR Inten    --     6.2217                 3.9335                30.1005
 Raman Activ --     0.0000                 0.0000                 0.0000
 Depolar     --     0.0000                 0.0000                 0.0000
 Atom AN      X      Y      Z        X      Y      Z        X      Y      Z
   1   6     0.00  -0.00   0.00     0.00   0.00   0.00    -0.00  -0.00  -0.00
   2   6    -0.00  -0.01   0.01     0.00   0.00   0.01     0.00  -0.00   0.00
   3   6    -0.00  -0.00   0.00    -0.00  -0.00  -0.00    -0.01  -0.01   0.01
   4   8    -0.00   0.00  -0.00    -0.00   0.00  -0.00    -0.00   0.00  -0.00
   5   8    -0.01   0.00   0.00    -0.00  -0.00   0.00    -0.23  -0.02   0.05
   6   7    -0.03  -0.17   0.09     0.06   0.09   0.27     0.00   0.00  -0.00
   7   1     0.00   0.00   0.00    -0.00  -0.00   0.00     0.00  -0.00  -0.00
   8   1    -0.00  -0.00   0.00     0.00   0.00  -0.01    -0.00  -0.00   0.00
   9   1    -0.00   0.00  -0.00    -0.00   0.00   0.00    -0.00   0.00  -0.00
  10   1     0.00   0.00  -0.01     0.00   0.00  -0.01    -0.00  -0.00  -0.00
  11   1     0.02   0.00  -0.01     0.00   0.00  -0.00     0.94   0.13  -0.22
  12   1     0.17   0.42   0.40    -0.23  -0.56  -0.46    -0.00  -0.01  -0.01
  13   1    -0.03   0.25  -0.73     0.00   0.22  -0.54     0.00  -0.01   0.02
