13
 energy: -21.043019888353 gnorm: 0.000026446615 xtb: 6.6.0 (8843059)
C           -1.21341085251112       -1.34540355060880       -0.51794541624236
C           -0.71025680341469       -0.24083555230638        0.41757489960655
C            0.75834638484824        0.01527618173613        0.08733232620379
O            1.65851018367291       -0.74755413502811        0.31450351540900
O            0.95361249366138        1.19946811354181       -0.51186842219304
N           -1.57480007932768        0.91591780812282        0.32227989854473
H           -2.24309421703218       -1.58183472248416       -0.26772040931213
H           -1.17375169983224       -1.00889356290032       -1.55192914200173
H           -0.59841212867130       -2.23409058225335       -0.40994801196246
H           -0.74561613534925       -0.61040356561133        1.44979266805320
H            1.89268437349690        1.31768982698521       -0.72363090651613
H           -1.25637105617021        1.65599521490303        0.93766949535431
H           -1.56843247633338        1.28036112217445       -0.62459775975658
