      -----------------------------------------------------------      
     |                   =====================                   |     
     |                           x T B                           |     
     |                   =====================                   |     
     |                         S. Grimme                         |     
     |          Mulliken Center for Theoretical Chemistry        |     
     |                    University of Bonn                     |     
      -----------------------------------------------------------      

   * xtb version 6.6.0 (8843059) compiled by 'stahn@majestix' on 2023-02-09

   xtb is free software: you can redistribute it and/or modify it under
   the terms of the GNU Lesser General Public License as published by
   the Free Software Foundation, either version 3 of the License, or
   (at your option) any later version.
   
   xtb is distributed in the hope that it will be useful,
   but WITHOUT ANY WARRANTY; without even the implied warranty of
   MERCHANTABILITY or FITNESS FOR A PARTICULAR PURPOSE.  See the
   GNU Lesser General Public License for more details.
   
   Cite this work as:
   * C. Bannwarth, E. Caldeweyher, S. Ehlert, A. Hansen, P. Pracht,
     J. Seibert, S. Spicher, S. Grimme, WIREs Comput. Mol. Sci., 2020, 11,
     e01493. DOI: 10.1002/wcms.1493
   
   for GFN2-xTB:
   * C. Bannwarth, S. Ehlert and S. Grimme., J. Chem. Theory Comput., 2019,
     15, 1652-1671. DOI: 10.1021/acs.jctc.8b01176
   for GFN1-xTB:
   * S. Grimme, C. Bannwarth, P. Shushkov, J. Chem. Theory Comput., 2017,
     13, 1989-2009. DOI: 10.1021/acs.jctc.7b00118
   for GFN0-xTB:
   * P. Pracht, E. Caldeweyher, S. Ehlert, S. Grimme, ChemRxiv, 2019, preprint.
     DOI: 10.26434/chemrxiv.8326202.v1
   for GFN-FF:
   * S. Spicher and S. Grimme, Angew. Chem. Int. Ed., 2020, 59, 15665-15673.
     DOI: 10.1002/anie.202004239
   
   for ALPB and GBSA implicit solvation:
   * S. Ehlert, M. Stahn, S. Spicher, S. Grimme, J. Chem. Theory Comput.,
     2021, 17, 4250-4261. DOI: 10.1021/acs.jctc.1c00471
   
   for DFT-D4:
   * E. Caldeweyher, C. Bannwarth and S. Grimme, J. Chem. Phys., 2017,
     147, 034112. DOI: 10.1063/1.4993215
   * E. Caldeweyher, S. Ehlert, A. Hansen, H. Neugebauer, S. Spicher,
     C. Bannwarth and S. Grimme, J. Chem. Phys., 2019, 150, 154122.
     DOI: 10.1063/1.5090222
   * E. Caldeweyher, J.-M. Mewes, S. Ehlert and S. Grimme, Phys. Chem. Chem. Phys.
     2020, 22, 8499-8512. DOI: 10.1039/D0CP00502A
   
   for sTDA-xTB:
   * S. Grimme and C. Bannwarth, J. Chem. Phys., 2016, 145, 054103.
     DOI: 10.1063/1.4959605
   
   in the mass-spec context:
   * V. Asgeirsson, C. Bauer and S. Grimme, Chem. Sci., 2017, 8, 4879.
     DOI: 10.1039/c7sc00601b
   * J. Koopman and S. Grimme, ACS Omega 2019, 4, 12, 15120-15133.
     DOI: 10.1021/acsomega.9b02011
   
   for metadynamics refer to:
   * S. Grimme, J. Chem. Theory Comput., 2019, 155, 2847-2862
     DOI: 10.1021/acs.jctc.9b00143
   
   for SPH calculations refer to:
   * S. Spicher and S. Grimme, J. Chem. Theory Comput., 2021, 17, 1701-1714
     DOI: 10.1021/acs.jctc.0c01306
   
   with help from (in alphabetical order)
   P. Atkinson, C. Bannwarth, F. Bohle, G. Brandenburg, E. Caldeweyher
   M. Checinski, S. Dohm, S. Ehlert, S. Ehrlich, I. Gerasimov, C. Hölzer
   A. Katbashev, J. Koopman, C. Lavigne, S. Lehtola, F. März, M. Müller,
   F. Musil, H. Neugebauer, J. Pisarek, C. Plett, P. Pracht, F. Pultar,
   J. Seibert, P. Shushkov, S. Spicher, M. Stahn, M. Steiner, T. Strunk,
   J. Stückrath, T. Rose, and J. Unsleber
   
 * started run on 2025/07/30 at 12:34:46.096     

           -------------------------------------------------
          |                Calculation Setup                |
           -------------------------------------------------

          program call               : xtb --gfn2 in.xyz --ohess vtight
          coordinate file            : in.xyz
          omp threads                :                     8

   ID    Z sym.   atoms
    1    6 C      1-4, 8, 10
    2    8 O      5, 6
    3    7 N      7, 9, 11, 12
    4    1 H      13-26

           -------------------------------------------------
          |                 G F N 2 - x T B                 |
           -------------------------------------------------

        Reference                      10.1021/acs.jctc.8b01176
      * Hamiltonian:
        H0-scaling (s, p, d)           1.850000    2.230000    2.230000
        zeta-weighting                 0.500000
      * Dispersion:
        s8                             2.700000
        a1                             0.520000
        a2                             5.000000
        s9                             5.000000
      * Repulsion:
        kExp                           1.500000    1.000000
        rExp                           1.000000
      * Coulomb:
        alpha                          2.000000
        third order                    shell-resolved
        anisotropic                    true
        a3                             3.000000
        a5                             4.000000
        cn-shift                       1.200000
        cn-exp                         4.000000
        max-rad                        5.000000


          ...................................................
          :                      SETUP                      :
          :.................................................:
          :  # basis functions                  62          :
          :  # atomic orbitals                  62          :
          :  # shells                           38          :
          :  # electrons                        70          :
          :  max. iterations                   250          :
          :  Hamiltonian                  GFN2-xTB          :
          :  restarted?                      false          :
          :  GBSA solvation                  false          :
          :  PC potential                    false          :
          :  electronic temp.          300.0000000     K    :
          :  accuracy                    1.0000000          :
          :  -> integral cutoff          0.2500000E+02      :
          :  -> integral neglect         0.1000000E-07      :
          :  -> SCF convergence          0.1000000E-05 Eh   :
          :  -> wf. convergence          0.1000000E-03 e    :
          :  Broyden damping             0.4000000          :
          ...................................................

 iter      E             dE          RMSdq      gap      omega  full diag
   1    -40.2026850 -0.402027E+02  0.366E+00    4.96       0.0  T
   2    -40.2469168 -0.442318E-01  0.206E+00    5.17       1.0  T
   3    -40.2492189 -0.230209E-02  0.733E-01    4.64       1.0  T
   4    -40.2503731 -0.115422E-02  0.188E-01    4.61       1.0  T
   5    -40.2505266 -0.153533E-03  0.688E-02    4.59       1.0  T
   6    -40.2505607 -0.340900E-04  0.340E-02    4.61       1.0  T
   7    -40.2505625 -0.177548E-05  0.851E-03    4.61       2.3  T
   8    -40.2505631 -0.600869E-06  0.286E-03    4.62       6.9  T
   9    -40.2505631 -0.315323E-07  0.136E-03    4.61      14.4  T
  10    -40.2505631 -0.358128E-08  0.406E-04    4.61      48.3  T
  11    -40.2505631 -0.696417E-09  0.128E-04    4.61     153.4  T

   *** convergence criteria satisfied after 11 iterations ***

         #    Occupation            Energy/Eh            Energy/eV
      -------------------------------------------------------------
         1        2.0000           -0.6997785             -19.0419
       ...           ...                  ...                  ...
        29        2.0000           -0.4324627             -11.7679
        30        2.0000           -0.4320978             -11.7580
        31        2.0000           -0.4233322             -11.5195
        32        2.0000           -0.4054642             -11.0332
        33        2.0000           -0.3864486             -10.5158
        34        2.0000           -0.3774047             -10.2697
        35        2.0000           -0.3606587              -9.8140 (HOMO)
        36                         -0.1910809              -5.1996 (LUMO)
        37                         -0.0205914              -0.5603
        38                          0.0275786               0.7505
        39                          0.0297665               0.8100
        40                          0.0584262               1.5899
       ...                                ...                  ...
        62                          0.5511582              14.9978
      -------------------------------------------------------------
                  HL-Gap            0.1695778 Eh            4.6144 eV
             Fermi-level           -0.2758698 Eh           -7.5068 eV

 SCC (total)                   0 d,  0 h,  0 min,  0.032 sec
 SCC setup                      ...        0 min,  0.000 sec (  1.030%)
 Dispersion                     ...        0 min,  0.000 sec (  1.280%)
 classical contributions        ...        0 min,  0.000 sec (  0.435%)
 integral evaluation            ...        0 min,  0.003 sec ( 10.633%)
 iterations                     ...        0 min,  0.019 sec ( 59.030%)
 molecular gradient             ...        0 min,  0.009 sec ( 26.908%)
 printout                       ...        0 min,  0.000 sec (  0.561%)

         :::::::::::::::::::::::::::::::::::::::::::::::::::::
         ::                     SUMMARY                     ::
         :::::::::::::::::::::::::::::::::::::::::::::::::::::
         :: total energy             -39.832382700148 Eh    ::
         :: gradient norm              0.000043778375 Eh/a0 ::
         :: HOMO-LUMO gap              4.614446470677 eV    ::
         ::.................................................::
         :: SCC energy               -40.250563104880 Eh    ::
         :: -> isotropic ES            0.099038532237 Eh    ::
         :: -> anisotropic ES         -0.005368893194 Eh    ::
         :: -> anisotropic XC          0.015103025590 Eh    ::
         :: -> dispersion             -0.023179570911 Eh    ::
         :: repulsion energy           0.417956340318 Eh    ::
         :: add. restraining           0.000000000000 Eh    ::
         :: total charge              -0.000000000000 e     ::
         :::::::::::::::::::::::::::::::::::::::::::::::::::::

      ----------------------------------------------------------- 
     |                   =====================                   |
     |                        A N C O P T                        |
     |                   =====================                   |
     |               Approximate Normal Coordinate               |
     |                Rational Function Optimizer                |
      ----------------------------------------------------------- 

          ...................................................
          :                      SETUP                      :
          :.................................................:
          :   optimization level         verytight          :
          :   max. optcycles                   520          :
          :   ANC micro-cycles                  20          :
          :   degrees of freedom                72          :
          :.................................................:
          :   RF solver                   davidson          :
          :   write xtbopt.log                true          :
          :   linear?                        false          :
          :   energy convergence         0.1000000E-06 Eh   :
          :   grad. convergence          0.2000000E-03 Eh/α :
          :   maxmium RF displ.          1.0000000          :
          :   Hlow (freq-cutoff)         0.1000000E-01      :
          :   Hmax (freq-cutoff)         5.0000000          :
          :   S6 in model hess.         20.0000000          :
          ...................................................

generating ANC from model Hessian ...
Using Lindh-Hessian (1995)
 Shifting diagonal of input Hessian by   7.585754875792904E-003
 Lowest  eigenvalues of input Hessian
    0.000000    0.000000    0.000000    0.000000    0.000000    0.000000
    0.010000    0.012010    0.013754    0.015661    0.016826    0.020578
    0.021152    0.024490    0.025848    0.028182    0.030263    0.034894
 Highest eigenvalues
    1.479195    1.515375    1.598987    1.657961    2.072693    2.250953
 

........................................................................
.............................. CYCLE    1 ..............................
........................................................................

 iter      E             dE          RMSdq      gap      omega  full diag
   1    -40.2505631 -0.402506E+02  0.563E-05    4.61       0.0  T
   2    -40.2505631 -0.662936E-11  0.338E-05    4.61     581.0  T
   3    -40.2505631 -0.639488E-12  0.125E-05    4.61    1569.6  T
     SCC iter.                  ...        0 min,  0.003 sec
     gradient                   ...        0 min,  0.004 sec
 * total energy  :   -39.8323827 Eh     change       -0.5054801E-10 Eh
   gradient norm :     0.0000431 Eh/α   predicted     0.0000000E+00 (-100.00%)
   displ. norm   :     0.0000647 α      lambda        0.0000000E+00
   maximum displ.:     0.0000292 α      in ANC's #67, #56, #57, ...

   *** GEOMETRY OPTIMIZATION CONVERGED AFTER 1 ITERATIONS ***

------------------------------------------------------------------------
 total energy gain   :        -0.0000000 Eh       -0.0000 kcal/mol
 total RMSD          :         0.0000001 a0        0.0000 Å
 total power (kW/mol):        -0.0000001 (step)   -0.0000 (real)
------------------------------------------------------------------------

 ANCopt (total)                0 d,  0 h,  0 min,  0.042 sec
 optimizer setup                ...        0 min,  0.000 sec (  0.379%)
 model hessian                  ...        0 min,  0.031 sec ( 74.152%)
 ANC generation                 ...        0 min,  0.001 sec (  2.033%)
 coordinate transformation      ...        0 min,  0.000 sec (  0.035%)
 single point calculation       ...        0 min,  0.009 sec ( 22.598%)
 optimization log               ...        0 min,  0.000 sec (  0.362%)
 hessian update                 ...        0 min,  0.000 sec (  0.007%)
 rational function              ...        0 min,  0.000 sec (  0.131%)

================
 final structure:
================
26
 xtb: 6.6.0 (8843059)
C           -0.84547100000000        2.28952000000000       -0.15223800000000
C           -1.81078800000000        1.27339000000000        0.46640300000000
C           -1.77335200000000       -0.04424400000000       -0.30568800000000
C           -0.37364000000000       -0.68920500000000       -0.10305200000000
O           -0.13660600000000       -1.56888400000000       -1.15400400000000
O           -0.37650100000000       -1.34290800000000        1.11858500000000
N           -2.84817500000000       -0.90989700000000        0.12483000000000
C            0.32506800000000        1.55949700000000       -0.82256000000000
N            0.65501800000000        0.36357300000000       -0.07503100000000
C            1.93647900000000       -0.03580700000000        0.18406100000000
N            2.89968300000000        0.95208000000000        0.24436300000000
N            2.17436300000000       -1.28567900000000        0.35532800000000
H           -1.35561300000000        2.89145500000000       -0.90474800000000
H           -0.47807600000000        2.96289700000000        0.62363500000000
H           -2.83140300000000        1.65220100000000        0.46754700000000
H           -1.52532300000000        1.05745500000000        1.49720300000000
H           -1.90698100000000        0.13347300000000       -1.37702800000000
H            0.51779500000000       -1.72144300000000        1.22035900000000
H           -2.81050500000000       -1.77384600000000       -0.40668000000000
H           -2.69918000000000       -1.15599800000000        1.09930100000000
H            0.04291900000000        1.26195800000000       -1.84066500000000
H            1.19798800000000        2.20570500000000       -0.90468100000000
H            3.77895600000000        0.66133900000000        0.64302500000000
H            2.60750300000000        1.87330800000000        0.52597300000000
H            3.13322700000000       -1.49278500000000        0.61053100000000
H            0.72740700000000       -1.98160700000000       -0.98149900000000
 
 Bond Distances (Angstroems)
 ---------------------------
C1-C2=1.5320         C1-C8=1.5338         C1-H13=1.0903        C1-H14=1.0911        C2-C1=1.5320         C2-C3=1.5276         
C2-H15=1.0886        C2-H16=1.0912        C3-C2=1.5276         C3-C4=1.5544         C3-N7=1.4457         C3-H17=1.0942        
C4-C3=1.5544         C4-O5=1.3909         C4-O6=1.3855         C4-N9=1.4722         O5-C4=1.3909         O5-H26=0.9729        
O6-C4=1.3855         O6-H18=0.9764        N7-C3=1.4457         N7-H19=1.0151        N7-H20=1.0161        C8-C1=1.5338         
C8-N9=1.4484         C8-H21=1.0976        C8-H22=1.0892        N9-C4=1.4722         N9-C8=1.4484         N9-C10=1.3670        
C10-N9=1.3670        C10-N11=1.3811       C10-N12=1.2838       N11-C10=1.3811       N11-H23=1.0083       N11-H24=1.0066       
N12-C10=1.2838       N12-H25=1.0136       H13-C1=1.0903        H14-C1=1.0911        H15-C2=1.0886        H16-C2=1.0912        
H17-C3=1.0942        H18-O6=0.9764        H19-N7=1.0151        H20-N7=1.0161        H21-C8=1.0976        H22-C8=1.0892        
H23-N11=1.0083       H24-N11=1.0066       H25-N12=1.0136       H26-O5=0.9729        
 C  H  Rav=1.0917 sigma=0.0029  Rmin=1.0886  Rmax=1.0976     7
 C  C  Rav=1.5370 sigma=0.0103  Rmin=1.5276  Rmax=1.5544     4
 N  H  Rav=1.0119 sigma=0.0038  Rmin=1.0066  Rmax=1.0161     5
 N  C  Rav=1.3997 sigma=0.0640  Rmin=1.2838  Rmax=1.4722     6
 O  H  Rav=0.9747 sigma=0.0017  Rmin=0.9729  Rmax=0.9764     2
 O  C  Rav=1.3882 sigma=0.0027  Rmin=1.3855  Rmax=1.3909     2
 
 selected bond angles (degree)
 --------------------
C8-C1-C2=109.98                H13-C1-C2=110.49               H13-C1-C8=108.55               H14-C1-C2=109.53               
H14-C1-C8=110.34               H14-C1-H13=107.92              C3-C2-C1=110.64                H15-C2-C1=111.12               
H15-C2-C3=108.88               H16-C2-C1=110.36               H16-C2-C3=107.48               H16-C2-H15=108.25              
C4-C3-C2=108.30                N7-C3-C2=110.35                N7-C3-C4=112.47                H17-C3-C2=110.60               
H17-C3-C4=107.76               H17-C3-N7=107.34               O5-C4-C3=108.50                O6-C4-C3=107.99                
O6-C4-O5=111.60                N9-C4-C3=109.57                N9-C4-O5=110.34                N9-C4-O6=108.79                
H26-O5-C4=106.60               H18-O6-C4=105.84               H19-N7-C3=109.03               H20-N7-C3=108.76               
H20-N7-H19=106.89              N9-C8-C1=109.96                H21-C8-C1=109.77               H21-C8-N9=108.27               
H22-C8-C1=111.24               H22-C8-N9=110.26               H22-C8-H21=107.27              C8-N9-C4=114.93                
C10-N9-C4=116.72               C10-N9-C8=123.54               N11-C10-N9=116.94              N12-C10-N9=118.91              
N12-C10-N11=124.15             
 
 selected dihedral angles (degree)
 ---------------------------------
C3-C2-C1-C8=331.19            C3-C2-C1-H13= 91.01           C3-C2-C1-H14=209.76           H15-C2-C1-C8=210.10           
H15-C2-C1-H13=329.92          H15-C2-C1-H14= 88.68          H16-C2-C1-C8= 90.01           H16-C2-C1-H13=209.83          
H16-C2-C1-H14=328.58          C4-C3-C2-C1= 66.78            C4-C3-C2-H15=189.18           C4-C3-C2-H16=306.23           
N7-C3-C2-C1=190.29            N7-C3-C2-H15=312.69           N7-C3-C2-H16= 69.73           H17-C3-C2-C1=308.91           
H17-C3-C2-H15= 71.31          H17-C3-C2-H16=188.35          O5-C4-C3-C2=202.48            O5-C4-C3-N7= 80.26            
O5-C4-C3-H17=322.15           O6-C4-C3-C2= 81.36            O6-C4-C3-N7=319.13            O6-C4-C3-H17=201.03           
N9-C4-C3-C2=323.01            N9-C4-C3-N7=200.79            N9-C4-C3-H17= 82.68           H26-O5-C4-C3=182.20           
H26-O5-C4-O6=301.07           H26-O5-C4-N9= 62.15           H18-O6-C4-C3=180.95           H18-O6-C4-O5= 61.78           
H18-O6-C4-N9=299.80           H19-N7-C3-C2=179.41           H19-N7-C3-C4=300.47           H19-N7-C3-H17= 58.82          
H20-N7-C3-C2=295.63           H20-N7-C3-C4= 56.69           H20-N7-C3-H17=175.05          N9-C8-C1-C2=325.63            
N9-C8-C1-H13=204.63           N9-C8-C1-H14= 86.57           H21-C8-C1-C2= 84.63           H21-C8-C1-H13=323.64          
H21-C8-C1-H14=205.57          H22-C8-C1-C2=203.20           H22-C8-C1-H13= 82.20          H22-C8-C1-H14=324.14          
C8-N9-C4-C3=332.25            C8-N9-C4-O5= 91.66            C8-N9-C4-O6=214.40            C10-N9-C4-C3=175.87           
C10-N9-C4-O5=295.28           C10-N9-C4-O6= 58.02           C4-N9-C8-C1= 67.34            C4-N9-C8-H21=307.42           
C4-N9-C8-H22=190.35           C10-N9-C8-C1=221.91           C10-N9-C8-H21=101.99          C10-N9-C8-H22=344.91          
N11-C10-N9-C4=181.56          N11-C10-N9-C8= 27.41          N12-C10-N9-C4=  1.54          N12-C10-N9-C8=207.39          
           -------------------------------------------------
          |                Final Singlepoint                |
           -------------------------------------------------

          ...................................................
          :                      SETUP                      :
          :.................................................:
          :  # basis functions                  62          :
          :  # atomic orbitals                  62          :
          :  # shells                           38          :
          :  # electrons                        70          :
          :  max. iterations                   250          :
          :  Hamiltonian                  GFN2-xTB          :
          :  restarted?                      false          :
          :  GBSA solvation                  false          :
          :  PC potential                    false          :
          :  electronic temp.          300.0000000     K    :
          :  accuracy                    1.0000000          :
          :  -> integral cutoff          0.2500000E+02      :
          :  -> integral neglect         0.1000000E-07      :
          :  -> SCF convergence          0.1000000E-05 Eh   :
          :  -> wf. convergence          0.1000000E-03 e    :
          :  Broyden damping             0.4000000          :
          ...................................................

 iter      E             dE          RMSdq      gap      omega  full diag
   1    -40.2505631 -0.402506E+02  0.306E-06    4.61       0.0  T
   2    -40.2505631 -0.142109E-13  0.173E-06    4.61   11348.7  T
   3    -40.2505631 -0.639488E-13  0.888E-07    4.61   22087.5  T

   *** convergence criteria satisfied after 3 iterations ***

         #    Occupation            Energy/Eh            Energy/eV
      -------------------------------------------------------------
         1        2.0000           -0.6997776             -19.0419
       ...           ...                  ...                  ...
        29        2.0000           -0.4324623             -11.7679
        30        2.0000           -0.4320969             -11.7580
        31        2.0000           -0.4233324             -11.5195
        32        2.0000           -0.4054638             -11.0332
        33        2.0000           -0.3864479             -10.5158
        34        2.0000           -0.3774042             -10.2697
        35        2.0000           -0.3606589              -9.8140 (HOMO)
        36                         -0.1910801              -5.1996 (LUMO)
        37                         -0.0205909              -0.5603
        38                          0.0275788               0.7505
        39                          0.0297668               0.8100
        40                          0.0584263               1.5899
       ...                                ...                  ...
        62                          0.5511591              14.9978
      -------------------------------------------------------------
                  HL-Gap            0.1695788 Eh            4.6145 eV
             Fermi-level           -0.2758695 Eh           -7.5068 eV

 SCC (total)                   0 d,  0 h,  0 min,  0.014 sec
 SCC setup                      ...        0 min,  0.000 sec (  0.808%)
 Dispersion                     ...        0 min,  0.000 sec (  0.835%)
 classical contributions        ...        0 min,  0.000 sec (  0.150%)
 integral evaluation            ...        0 min,  0.001 sec ( 10.044%)
 iterations                     ...        0 min,  0.007 sec ( 51.433%)
 molecular gradient             ...        0 min,  0.005 sec ( 35.500%)
 printout                       ...        0 min,  0.000 sec (  1.021%)

         :::::::::::::::::::::::::::::::::::::::::::::::::::::
         ::                     SUMMARY                     ::
         :::::::::::::::::::::::::::::::::::::::::::::::::::::
         :: total energy             -39.832382700200 Eh    ::
         :: gradient norm              0.000043121109 Eh/a0 ::
         :: HOMO-LUMO gap              4.614474240897 eV    ::
         ::.................................................::
         :: SCC energy               -40.250563104932 Eh    ::
         :: -> isotropic ES            0.099039136359 Eh    ::
         :: -> anisotropic ES         -0.005368698022 Eh    ::
         :: -> anisotropic XC          0.015103113505 Eh    ::
         :: -> dispersion             -0.023179571366 Eh    ::
         :: repulsion energy           0.417956340318 Eh    ::
         :: add. restraining           0.000000000000 Eh    ::
         :: total charge              -0.000000000000 e     ::
         :::::::::::::::::::::::::::::::::::::::::::::::::::::

           ------------------------------------------------- 
          |                Numerical Hessian                |
           ------------------------------------------------- 
step length          :   0.00500
SCC accuracy         :   0.30000
Hessian scale factor :   1.00000
frozen atoms in %    :   0.00000    0
RMS gradient         :   0.00004
estimated CPU  time      0.87 min
estimated wall time      0.12 min

writing file <hessian>.

 projected vibrational frequencies (cm⁻¹)
eigval :       -0.00     0.00     0.00     0.00     0.00     0.00
eigval :       53.50    97.30   106.44   164.12   186.45   249.81
eigval :      268.70   297.58   308.15   331.64   361.49   405.65
eigval :      416.94   444.64   483.51   511.99   534.68   549.86
eigval :      551.93   586.93   624.10   651.47   664.14   742.38
eigval :      753.98   814.11   874.25   942.06   949.35   995.43
eigval :     1014.62  1026.29  1032.87  1062.19  1075.43  1095.20
eigval :     1116.18  1134.33  1145.69  1164.77  1183.71  1211.73
eigval :     1220.40  1236.06  1255.18  1281.02  1321.54  1329.12
eigval :     1333.19  1358.63  1364.69  1426.55  1476.50  1484.06
eigval :     1492.66  1505.32  1562.67  1661.26  2899.86  2950.25
eigval :     2977.31  2992.28  2997.96  3006.03  3017.20  3290.58
eigval :     3380.23  3385.21  3403.50  3411.64  3457.54  3509.57
           -------------------------------------------------
          |                Property Printout                |
           -------------------------------------------------

    * Orbital Energies and Occupations

         #    Occupation            Energy/Eh            Energy/eV
      -------------------------------------------------------------
         1        2.0000           -0.6997776             -19.0419
       ...           ...                  ...                  ...
        23        2.0000           -0.4865301             -13.2392
        24        2.0000           -0.4841699             -13.1749
        25        2.0000           -0.4780886             -13.0095
        26        2.0000           -0.4624873             -12.5849
        27        2.0000           -0.4509200             -12.2702
        28        2.0000           -0.4385392             -11.9333
        29        2.0000           -0.4324623             -11.7679
        30        2.0000           -0.4320969             -11.7580
        31        2.0000           -0.4233324             -11.5195
        32        2.0000           -0.4054638             -11.0332
        33        2.0000           -0.3864479             -10.5158
        34        2.0000           -0.3774042             -10.2697
        35        2.0000           -0.3606589              -9.8140 (HOMO)
        36                         -0.1910801              -5.1996 (LUMO)
        37                         -0.0205909              -0.5603
        38                          0.0275788               0.7505
        39                          0.0297668               0.8100
        40                          0.0584263               1.5899
        41                          0.0666460               1.8135
        42                          0.0744525               2.0260
        43                          0.1089647               2.9651
        44                          0.1106426               3.0107
        45                          0.1203889               3.2759
        46                          0.1335825               3.6350
       ...                                ...                  ...
        62                          0.5511591              14.9978
      -------------------------------------------------------------
                  HL-Gap            0.1695788 Eh            4.6145 eV
             Fermi-level           -0.2758695 Eh           -7.5068 eV

     #   Z          covCN         q      C6AA      α(0)
     1   6 C        3.804    -0.068    21.807     6.648
     2   6 C        3.809    -0.073    21.897     6.661
     3   6 C        3.785     0.046    19.820     6.341
     4   6 C        3.607     0.324    16.218     5.818
     5   8 O        1.656    -0.472    22.297     6.374
     6   8 O        1.657    -0.465    22.156     6.354
     7   7 N        2.632    -0.340    28.751     7.964
     8   6 C        3.746     0.005    20.559     6.468
     9   7 N        2.749    -0.174    24.765     7.391
    10   6 C        2.748     0.240    22.989     7.851
    11   7 N        2.641    -0.311    28.000     7.859
    12   7 N        1.789    -0.463    33.194     8.534
    13   1 H        0.924     0.045     2.382     2.414
    14   1 H        0.924     0.041     2.433     2.439
    15   1 H        0.925     0.058     2.222     2.331
    16   1 H        0.924     0.052     2.297     2.370
    17   1 H        0.924     0.045     2.380     2.413
    18   1 H        0.804     0.322     0.658     1.274
    19   1 H        0.860     0.154     1.375     1.837
    20   1 H        0.860     0.159     1.340     1.814
    21   1 H        0.924     0.043     2.415     2.430
    22   1 H        0.925     0.049     2.338     2.391
    23   1 H        0.860     0.170     1.271     1.766
    24   1 H        0.860     0.170     1.274     1.768
    25   1 H        0.860     0.123     1.598     1.980
    26   1 H        0.804     0.321     0.661     1.278

 Mol. C6AA /au·bohr⁶  :       5781.500566
 Mol. C8AA /au·bohr⁸  :     123602.819350
 Mol. α(0) /au        :        112.767273


Wiberg/Mayer (AO) data.
largest (>0.10) Wiberg bond orders for each atom

 ---------------------------------------------------------------------------
     #   Z sym  total        # sym  WBO       # sym  WBO       # sym  WBO
 ---------------------------------------------------------------------------
     1   6 C    3.996 --     2 C    1.005     8 C    0.998    14 H    0.980
                            13 H    0.979
     2   6 C    3.994 --     1 C    1.005     3 C    0.994    16 H    0.977
                            15 H    0.976
     3   6 C    3.987 --     7 N    1.034     2 C    0.994    17 H    0.963
                             4 C    0.933
     4   6 C    3.922 --     6 O    1.005     5 O    0.991     3 C    0.933
                             9 N    0.921
     5   8 O    1.975 --     4 C    0.991    26 H    0.856
     6   8 O    1.979 --     4 C    1.005    18 H    0.837
     7   7 N    3.015 --     3 C    1.034    19 H    0.961    20 H    0.956
     8   6 C    3.974 --     1 C    0.998     9 N    0.987    22 H    0.968
                            21 H    0.966
     9   7 N    3.380 --    10 C    1.172     8 C    0.987     4 C    0.921
                            12 N    0.118
    10   6 C    3.962 --    12 N    1.607     9 N    1.172    11 N    1.135
    11   7 N    3.233 --    10 C    1.135    23 H    0.950    24 H    0.944
                            12 N    0.132
    12   7 N    2.941 --    10 C    1.607    25 H    0.954    11 N    0.132
                             9 N    0.118
    13   1 H    0.998 --     1 C    0.979
    14   1 H    0.998 --     1 C    0.980
    15   1 H    0.997 --     2 C    0.976
    16   1 H    0.997 --     2 C    0.977
    17   1 H    0.998 --     3 C    0.963
    18   1 H    0.896 --     6 O    0.837
    19   1 H    0.976 --     7 N    0.961
    20   1 H    0.975 --     7 N    0.956
    21   1 H    0.998 --     8 C    0.966
    22   1 H    0.998 --     8 C    0.968
    23   1 H    0.970 --    11 N    0.950
    24   1 H    0.971 --    11 N    0.944
    25   1 H    0.984 --    12 N    0.954
    26   1 H    0.897 --     5 O    0.856
 ---------------------------------------------------------------------------

Topologies differ in total number of bonds
Writing topology from bond orders to xtbtopo.mol

molecular dipole:
                 x           y           z       tot (Debye)
 q only:        0.568       1.142       0.176
   full:        1.639       1.225       0.400       5.299
molecular quadrupole (traceless):
                xx          xy          yy          xz          yz          zz
 q only:        1.931       1.469       2.047       1.709      -0.606      -3.978
  q+dip:        1.779       1.661       1.756       5.095      -0.185      -3.535
   full:        1.631       1.677       1.909       4.618      -0.289      -3.540

           -------------------------------------------------
          |                Geometry Summary                 |
           -------------------------------------------------

      molecular mass/u    :      174.2012086
   center of mass at/Å    :        0.0000035      -0.0000052       0.0000012
  moments of inertia/u·Å² :        0.3513073E+03   0.5756583E+03   0.7865484E+03
rotational constants/cm⁻¹ :        0.4798543E-01   0.2928409E-01   0.2143242E-01

 * 24 selected distances

     #   Z          #   Z                                           value/Å
     1   6 C        2   6 C                                       1.5320164
     2   6 C        3   6 C                                       1.5276406
     4   6 C        5   8 O                                       1.3908705
     4   6 C        6   8 O                                       1.3855443
     3   6 C        7   7 N                                       1.4456645
     1   6 C        8   6 C                                       1.5337624 (max)
     4   6 C        9   7 N                                       1.4721632
     8   6 C        9   7 N                                       1.4484133
     9   7 N       10   6 C                                       1.3670317
    10   6 C       11   7 N                                       1.3810573
    10   6 C       12   7 N                                       1.2837841
     1   6 C       13   1 H                                       1.0903404
     1   6 C       14   1 H                                       1.0910522
     2   6 C       15   1 H                                       1.0886479
     2   6 C       16   1 H                                       1.0911769
     3   6 C       17   1 H                                       1.0941708
     6   8 O       18   1 H                                       0.9764283
     7   7 N       19   1 H                                       1.0150517
     7   7 N       20   1 H                                       1.0160508
     8   6 C       21   1 H                                       1.0975771
     8   6 C       22   1 H                                       1.0891823
    11   7 N       23   1 H                                       1.0082574
    11   7 N       24   1 H                                       1.0066452
     5   8 O       26   1 H                                       0.9729424 (min)

 * 6 distinct bonds (by element types)

   Z      Z             #   av. dist./Å        max./Å        min./Å
   1 H    6 C           7     1.0917354     1.0975771     1.0886479
   6 C    6 C           3     1.5311398     1.5337624     1.5276406
   1 H    7 N           4     1.0115013     1.0160508     1.0066452
   6 C    7 N           6     1.3996857     1.4721632     1.2837841
   1 H    8 O           2     0.9746853     0.9764283     0.9729424
   6 C    8 O           2     1.3882074     1.3908705     1.3855443

           -------------------------------------------------
          |               Frequency Printout                |
           -------------------------------------------------
 projected vibrational frequencies (cm⁻¹)
eigval :       -0.00     0.00     0.00     0.00     0.00     0.00
eigval :       53.50    97.30   106.44   164.12   186.45   249.81
eigval :      268.70   297.58   308.15   331.64   361.49   405.65
eigval :      416.94   444.64   483.51   511.99   534.68   549.86
eigval :      551.93   586.93   624.10   651.47   664.14   742.38
eigval :      753.98   814.11   874.25   942.06   949.35   995.43
eigval :     1014.62  1026.29  1032.87  1062.19  1075.43  1095.20
eigval :     1116.18  1134.33  1145.69  1164.77  1183.71  1211.73
eigval :     1220.40  1236.06  1255.18  1281.02  1321.54  1329.12
eigval :     1333.19  1358.63  1364.69  1426.55  1476.50  1484.06
eigval :     1492.66  1505.32  1562.67  1661.26  2899.86  2950.25
eigval :     2977.31  2992.28  2997.96  3006.03  3017.20  3290.58
eigval :     3380.23  3385.21  3403.50  3411.64  3457.54  3509.57
 reduced masses (amu)
   1: 11.98   2: 12.27   3: 11.59   4: 12.66   5: 11.25   6: 12.98   7: 11.71   8: 12.95
   9: 11.06  10:  6.86  11: 11.58  12: 12.53  13:  9.07  14: 10.72  15:  1.98  16: 11.81
  17: 10.15  18:  9.86  19:  7.17  20:  9.84  21:  9.92  22:  5.27  23:  9.83  24:  9.63
  25:  5.39  26:  9.03  27:  6.99  28: 10.62  29:  7.33  30:  3.40  31:  9.01  32:  6.06
  33:  8.62  34:  8.64  35:  6.81  36:  6.39  37:  7.17  38:  6.61  39:  5.45  40: 10.54
  41:  8.10  42:  8.06  43:  7.42  44:  8.17  45:  4.09  46:  8.01  47:  6.72  48:  6.09
  49:  5.77  50:  4.00  51:  6.22  52:  4.87  53:  3.87  54:  4.51  55:  3.80  56:  6.09
  57:  5.31  58:  8.70  59:  1.98  60:  3.23  61:  2.43  62:  3.44  63:  2.07  64: 11.99
  65:  1.76  66:  1.74  67:  1.92  68:  1.67  69:  1.75  70:  1.68  71:  1.67  72:  1.87
  73:  1.86  74:  1.53  75:  1.86  76:  2.05  77:  1.47  78:  2.14
 IR intensities (km·mol⁻¹)
   1:  1.93   2:  0.62   3:  0.77   4:  0.06   5:  0.08   6:  0.38   7:  0.32   8:  5.26
   9:  3.60  10:  0.69  11:  3.22  12:  4.28  13:  6.68  14:  8.82  15: 40.86  16: 10.19
  17:  6.68  18: 20.45  19:  4.35  20: 17.94  21: 27.03  22: 74.29  23: 38.65  24: 14.05
  25:115.40  26:  6.69  27:182.93  28:122.12  29:115.76  30:113.39  31:  4.45  32: 16.25
  33: 13.64  34:  6.20  35: 23.31  36:126.73  37: 22.70  38: 99.52  39: 17.23  40:132.32
  41: 47.00  42: 81.94  43: 42.40  44: 71.12  45: 31.12  46: 83.93  47:146.82  48: 30.60
  49:131.02  50: 23.01  51: 78.61  52: 55.05  53: 16.39  54:  6.80  55: 13.30  56: 31.81
  57: 10.46  58:238.42  59:  8.59  60: 69.92  61: 39.62  62:157.17  63: 40.66  64:419.82
  65: 27.80  66: 34.15  67: 15.07  68: 29.16  69: 51.24  70: 40.16  71: 34.70  72:129.12
  73: 87.33  74:  3.77  75: 34.18  76:  1.55  77:  2.07  78:  0.53
 Raman intensities (amu)
   1:  0.00   2:  0.00   3:  0.00   4:  0.00   5:  0.00   6:  0.00   7:  0.00   8:  0.00
   9:  0.00  10:  0.00  11:  0.00  12:  0.00  13:  0.00  14:  0.00  15:  0.00  16:  0.00
  17:  0.00  18:  0.00  19:  0.00  20:  0.00  21:  0.00  22:  0.00  23:  0.00  24:  0.00
  25:  0.00  26:  0.00  27:  0.00  28:  0.00  29:  0.00  30:  0.00  31:  0.00  32:  0.00
  33:  0.00  34:  0.00  35:  0.00  36:  0.00  37:  0.00  38:  0.00  39:  0.00  40:  0.00
  41:  0.00  42:  0.00  43:  0.00  44:  0.00  45:  0.00  46:  0.00  47:  0.00  48:  0.00
  49:  0.00  50:  0.00  51:  0.00  52:  0.00  53:  0.00  54:  0.00  55:  0.00  56:  0.00
  57:  0.00  58:  0.00  59:  0.00  60:  0.00  61:  0.00  62:  0.00  63:  0.00  64:  0.00
  65:  0.00  66:  0.00  67:  0.00  68:  0.00  69:  0.00  70:  0.00  71:  0.00  72:  0.00
  73:  0.00  74:  0.00  75:  0.00  76:  0.00  77:  0.00  78:  0.00
 output can be read by thermo (or use thermo option).
 writing <g98.out> molden fake output.
 recommended (thermochemical) frequency scaling factor: 1.0
           -------------------------------------------------
          |             Thermodynamic Functions             |
           -------------------------------------------------

Molecule has no symmetry elements
It seems to be the C1 point group
c1  symmetry found (for desy threshold:  0.10E+00) used in thermo

          ...................................................
          :                      SETUP                      :
          :.................................................:
          :  # frequencies                          72      :
          :  # imaginary freq.                       0      :
          :  linear?                             false      :
          :  only rotor calc.                    false      :
          :  symmetry                               c1      :
          :  rotational number                       1      :
          :  scaling factor                  1.0000000      :
          :  rotor cutoff                   50.0000000 cm⁻¹ :
          :  imag. cutoff                  -20.0000000 cm⁻¹ :
          :.................................................:

    mode    ω/cm⁻¹     T·S(HO)/kcal·mol⁻¹    T·S(FR)/kcal·mol⁻¹   T·S(vib)
   ------------------------------------------------------------------------
       1     53.50    -1.39644 ( 56.72%)    -1.03635 ( 43.28%)    -1.24060
       2     97.30    -1.04584 ( 93.48%)    -0.85924 (  6.52%)    -1.03368
       3    106.44    -0.99367 ( 95.36%)    -0.83263 (  4.64%)    -0.98619
       4    164.12    -0.74591 ( 99.15%)    -0.70440 (  0.85%)    -0.74555
       5    186.45    -0.67467 ( 99.49%)    -0.66661 (  0.51%)    -0.67463
       6    249.81    -0.51638 ( 99.84%)    -0.57996 (  0.16%)    -0.51648
       7    268.70    -0.47840 ( 99.88%)    -0.55837 (  0.12%)    -0.47850
       8    297.58    -0.42649 ( 99.92%)    -0.52812 (  0.08%)    -0.42657
   ------------------------------------------------------------------------

   temp. (K)  partition function   enthalpy   heat capacity  entropy
                                   cal/mol     cal/K/mol   cal/K/mol   J/K/mol
 298.15  VIB  0.156E+04             5876.055     42.277     33.734
         ROT  0.963E+06              888.752      2.981     30.362
         INT  0.150E+10             6764.808     45.257     64.095
         TR   0.222E+28             1481.254      4.968     41.354
         TOT                        8246.0616    50.2256   105.4492   441.1994

       T/K    H(0)-H(T)+PV         H(T)/Eh          T*S/Eh         G(T)/Eh
   ------------------------------------------------------------------------
    298.15    0.131409E-01    0.229962E+00    0.501023E-01    0.179860E+00
   ------------------------------------------------------------------------

         :::::::::::::::::::::::::::::::::::::::::::::::::::::
         ::                  THERMODYNAMIC                  ::
         :::::::::::::::::::::::::::::::::::::::::::::::::::::
         :: total free energy         -39.652522719170 Eh   ::
         ::.................................................::
         :: total energy              -39.832382700200 Eh   ::
         :: zero point energy           0.216821354403 Eh   ::
         :: G(RRHO) w/o ZPVE           -0.036961373373 Eh   ::
         :: G(RRHO) contrib.            0.179859981029 Eh   ::
         :::::::::::::::::::::::::::::::::::::::::::::::::::::

optimized geometry written to: xtbopt.xyz


           -------------------------------------------------
          | TOTAL ENERGY              -39.832382700200 Eh   |
          | TOTAL ENTHALPY            -39.602420410142 Eh   |
          | TOTAL FREE ENERGY         -39.652522719170 Eh   |
          | GRADIENT NORM               0.000043114522 Eh/α |
          | HOMO-LUMO GAP               4.614474368529 eV   |
           -------------------------------------------------

------------------------------------------------------------------------
 * finished run on 2025/07/30 at 12:34:47.306     
------------------------------------------------------------------------
 total:
 * wall-time:     0 d,  0 h,  0 min,  1.209 sec
 *  cpu-time:     0 d,  0 h,  0 min,  8.867 sec
 * ratio c/w:     7.336 speedup
 SCF:
 * wall-time:     0 d,  0 h,  0 min,  0.032 sec
 *  cpu-time:     0 d,  0 h,  0 min,  0.238 sec
 * ratio c/w:     7.411 speedup
 ANC optimizer:
 * wall-time:     0 d,  0 h,  0 min,  0.057 sec
 *  cpu-time:     0 d,  0 h,  0 min,  0.442 sec
 * ratio c/w:     7.698 speedup
 analytical hessian:
 * wall-time:     0 d,  0 h,  0 min,  1.095 sec
 *  cpu-time:     0 d,  0 h,  0 min,  8.021 sec
 * ratio c/w:     7.322 speedup

