26
 energy: -39.832382700199 gnorm: 0.000043140674 xtb: 6.6.0 (8843059)
C           -0.84547100000000        2.28952000000000       -0.15223800000000
C           -1.81078800000000        1.27339000000000        0.46640300000000
C           -1.77335200000000       -0.04424400000000       -0.30568800000000
C           -0.37364000000000       -0.68920500000000       -0.10305200000000
O           -0.13660600000000       -1.56888400000000       -1.15400400000000
O           -0.37650100000000       -1.34290800000000        1.11858500000000
N           -2.84817500000000       -0.90989700000000        0.12483000000000
C            0.32506800000000        1.55949700000000       -0.82256000000000
N            0.65501800000000        0.36357300000000       -0.07503100000000
C            1.93647900000000       -0.03580700000000        0.18406100000000
N            2.89968300000000        0.95208000000000        0.24436300000000
N            2.17436300000000       -1.28567900000000        0.35532800000000
H           -1.35561300000000        2.89145500000000       -0.90474800000000
H           -0.47807600000000        2.96289700000000        0.62363500000000
H           -2.83140300000000        1.65220100000000        0.46754700000000
H           -1.52532300000000        1.05745500000000        1.49720300000000
H           -1.90698100000000        0.13347300000000       -1.37702800000000
H            0.51779500000000       -1.72144300000000        1.22035900000000
H           -2.81050500000000       -1.77384600000000       -0.40668000000000
H           -2.69918000000000       -1.15599800000000        1.09930100000000
H            0.04291900000000        1.26195800000000       -1.84066500000000
H            1.19798800000000        2.20570500000000       -0.90468100000000
H            3.77895600000000        0.66133900000000        0.64302500000000
H            2.60750300000000        1.87330800000000        0.52597300000000
H            3.13322700000000       -1.49278500000000        0.61053100000000
H            0.72740700000000       -1.98160700000000       -0.98149900000000
