 Entering Gaussian System
 *********************************************
 Gaussian 98:
 frequency output generated by the xtb code
 *********************************************
                         Standard orientation:
 --------------------------------------------------------------------
  Center     Atomic     Atomic              Coordinates (Angstroms)
  Number     Number      Type              X           Y           Z
 --------------------------------------------------------------------
    1          6             0       -1.036110    2.104780   -0.354110
    2          6             0       -2.079004    1.070866   -0.758436
    3          6             0       -1.849919   -0.240511   -0.010702
    4          6             0       -0.396312   -0.757914   -0.195734
    5          8             0       -0.225088   -1.166074   -1.517240
    6          8             0       -0.250519   -1.809985    0.687740
    7          7             0       -2.211031   -0.098280    1.386042
    8          6             0        0.350344    1.540391   -0.625404
    9          7             0        0.569769    0.311648    0.135599
   10          6             0        1.882646   -0.090588    0.307800
   11          7             0        2.749541    0.890698    0.735607
   12          7             0        2.225403   -1.301021    0.075760
   13          1             0       -1.166241    3.020594   -0.932598
   14          1             0       -1.142241    2.351217    0.703094
   15          1             0       -2.005657    0.877704   -1.829019
   16          1             0       -3.082987    1.424742   -0.526698
   17          1             0       -2.490101   -1.018370   -0.438415
   18          1             0        0.674730   -2.120398    0.600077
   19          1             0       -1.539561    0.506940    1.848317
   20          1             0       -2.141374   -1.005232    1.835124
   21          1             0        0.438405    1.316496   -1.698377
   22          1             0        1.122419    2.264309   -0.364200
   23          1             0        3.639029    0.568112    1.082069
   24          1             0        2.362924    1.676288    1.231707
   25          1             0        3.188354   -1.514648    0.311051
   26          1             0        0.644364   -1.591491   -1.573310
 --------------------------------------------------------------------
     1 basis functions        1 primitive gaussians
     1 alpha electrons        1 beta electrons
 
 Harmonic frequencies (cm**-1), IR intensities (km*mol⁻¹),
 Raman scattering activities (A**4/amu), Raman depolarization ratios,
 reduced masses (AMU), force constants (mDyne/A) and normal coordinates:
                      1                      2                      3
                        a                      a                      a 
 Frequencies --    59.1749                79.5231               115.8787
 Red. masses --    12.0491                11.6760                10.9004
 Frc consts  --     0.0000                 0.0000                 0.0000
 IR Inten    --     0.8901                 2.8037                 1.4690
 Raman Activ --     0.0000                 0.0000                 0.0000
 Depolar     --     0.0000                 0.0000                 0.0000
 Atom AN      X      Y      Z        X      Y      Z        X      Y      Z
   1   6    -0.05   0.01   0.14    -0.06  -0.03  -0.19     0.20   0.08   0.09
   2   6     0.05   0.01  -0.09     0.02  -0.13  -0.14     0.01   0.21   0.22
   3   6    -0.03  -0.02  -0.13     0.01  -0.01   0.07    -0.00   0.04  -0.04
   4   6     0.03   0.04   0.12    -0.00  -0.01   0.05     0.00   0.00  -0.02
   5   8     0.21  -0.13   0.23     0.01  -0.03   0.08    -0.11  -0.29   0.05
   6   8    -0.03   0.18   0.32     0.05  -0.00   0.08     0.06   0.17   0.18
   7   7    -0.38  -0.14  -0.22     0.14   0.25   0.09    -0.18  -0.26  -0.06
   8   6     0.00   0.12   0.21     0.00   0.01   0.05     0.05  -0.08  -0.33
   9   7     0.02   0.06   0.12    -0.05   0.02   0.10     0.05   0.00  -0.25
  10   6     0.04  -0.01  -0.14    -0.02  -0.01  -0.04     0.02   0.03  -0.05
  11   7     0.19  -0.09  -0.25    -0.14  -0.15   0.45    -0.17   0.04   0.31
  12   7    -0.07  -0.01  -0.31     0.03   0.12  -0.60     0.12   0.08  -0.17
  13   1    -0.01   0.02   0.07    -0.01  -0.04  -0.10     0.04   0.05   0.07
  14   1    -0.05  -0.03   0.04    -0.06   0.04  -0.07     0.15  -0.01   0.04
  15   1     0.07   0.02  -0.03     0.03  -0.09  -0.03    -0.08   0.11   0.05
  16   1    -0.00  -0.01  -0.07    -0.00  -0.04  -0.08     0.03   0.08   0.15
  17   1     0.03  -0.01  -0.09    -0.01  -0.02   0.07     0.01   0.04  -0.08
  18   1    -0.03   0.01   0.07    -0.01  -0.04  -0.03     0.00   0.02   0.02
  19   1    -0.15  -0.03  -0.00     0.07   0.07  -0.02    -0.09  -0.06   0.03
  20   1    -0.11  -0.04  -0.07     0.03   0.08   0.06    -0.02  -0.09  -0.06
  21   1     0.04   0.07   0.06     0.06   0.00   0.02    -0.09  -0.07  -0.09
  22   1    -0.02   0.04   0.10    -0.02   0.01   0.05     0.07  -0.05  -0.19
  23   1     0.06  -0.05  -0.12    -0.03  -0.05   0.09    -0.06   0.03   0.13
  24   1     0.09  -0.03  -0.03    -0.06  -0.09   0.17    -0.10  -0.01   0.07
  25   1    -0.01  -0.02  -0.14     0.01   0.01  -0.19     0.02   0.02  -0.00
  26   1     0.08   0.01   0.10     0.03   0.05   0.02    -0.01  -0.05   0.01
                      4                      5                      6
                        a                      a                      a 
 Frequencies --   183.4372               208.6284               227.8861
 Red. masses --    10.9844                11.8271                11.0921
 Frc consts  --     0.0000                 0.0000                 0.0000
 IR Inten    --     6.2568                 2.6356                 5.2554
 Raman Activ --     0.0000                 0.0000                 0.0000
 Depolar     --     0.0000                 0.0000                 0.0000
 Atom AN      X      Y      Z        X      Y      Z        X      Y      Z
   1   6    -0.13   0.05   0.29     0.01  -0.08   0.04     0.18  -0.01   0.16
   2   6     0.04   0.03  -0.08     0.14  -0.14  -0.15     0.15   0.10  -0.03
   3   6     0.05   0.02  -0.12    -0.03  -0.02   0.09    -0.03   0.05  -0.04
   4   6    -0.00  -0.08  -0.15    -0.01   0.01   0.04    -0.07  -0.14   0.04
   5   8    -0.00  -0.46  -0.05    -0.59   0.03  -0.05    -0.01  -0.09   0.04
   6   8    -0.03   0.12   0.10     0.25   0.02  -0.01    -0.16  -0.29  -0.07
   7   7     0.36   0.18  -0.05    -0.33   0.07  -0.01    -0.07   0.25  -0.07
   8   6    -0.08   0.22   0.19     0.10   0.11   0.13     0.05  -0.21   0.10
   9   7    -0.01  -0.05  -0.30     0.14  -0.07  -0.18    -0.09  -0.20   0.21
  10   6    -0.05  -0.00  -0.07     0.12  -0.01  -0.03     0.01   0.02   0.01
  11   7    -0.10   0.01   0.03     0.05   0.04   0.05    -0.23   0.35  -0.19
  12   7    -0.03  -0.03   0.09     0.23   0.00   0.07     0.26   0.14  -0.12
  13   1    -0.05   0.06   0.16    -0.01  -0.01   0.03     0.09   0.02   0.08
  14   1    -0.07  -0.08   0.10    -0.04  -0.05   0.01     0.05  -0.04   0.05
  15   1     0.08   0.04  -0.03     0.14  -0.09  -0.03     0.08   0.05  -0.01
  16   1    -0.01  -0.03  -0.07     0.02  -0.03  -0.15     0.04   0.04  -0.04
  17   1    -0.02   0.02   0.00     0.01  -0.02   0.02    -0.04   0.04  -0.01
  18   1    -0.01   0.02   0.04     0.07   0.04  -0.03    -0.04  -0.07   0.00
  19   1     0.24  -0.10  -0.03    -0.17   0.09   0.02     0.07  -0.05  -0.00
  20   1    -0.06   0.03  -0.03    -0.05   0.04   0.03    -0.18   0.06  -0.01
  21   1    -0.00   0.18   0.03     0.09   0.13   0.02    -0.02  -0.10   0.03
  22   1    -0.04   0.05   0.14    -0.01   0.04   0.13     0.06  -0.09  -0.02
  23   1    -0.05  -0.01   0.05     0.00   0.01   0.04     0.01   0.18  -0.15
  24   1    -0.04  -0.01   0.02    -0.01  -0.01   0.04    -0.12  -0.01   0.07
  25   1    -0.02  -0.00   0.07     0.06   0.02   0.06     0.10   0.10  -0.10
  26   1     0.00  -0.11   0.02    -0.18  -0.03  -0.12     0.00  -0.01   0.01
                      7                      8                      9
                        a                      a                      a 
 Frequencies --   274.7798               294.9220               336.7224
 Red. masses --     2.6219                 8.9719                 9.0728
 Frc consts  --     0.0000                 0.0000                 0.0000
 IR Inten    --    38.2028                 3.5516                 9.6342
 Raman Activ --     0.0000                 0.0000                 0.0000
 Depolar     --     0.0000                 0.0000                 0.0000
 Atom AN      X      Y      Z        X      Y      Z        X      Y      Z
   1   6    -0.00   0.08   0.04     0.15   0.20  -0.33    -0.16   0.04  -0.20
   2   6    -0.02   0.07   0.07     0.14   0.06   0.01    -0.38   0.12   0.16
   3   6     0.01   0.03  -0.04     0.01   0.02   0.02    -0.04   0.05  -0.07
   4   6    -0.00  -0.06  -0.05    -0.06  -0.02  -0.01     0.01  -0.00  -0.06
   5   8     0.08  -0.19  -0.01    -0.18  -0.14   0.03    -0.03  -0.17  -0.02
   6   8    -0.05  -0.08  -0.04    -0.06  -0.01   0.04    -0.13  -0.04  -0.06
   7   7     0.01  -0.01  -0.06     0.15  -0.42   0.11    -0.07   0.13  -0.10
   8   6    -0.00   0.03   0.14     0.21   0.15   0.20    -0.07  -0.02   0.18
   9   7    -0.03  -0.08  -0.01    -0.10  -0.00   0.06     0.12  -0.12   0.01
  10   6    -0.02  -0.02  -0.01    -0.10   0.03   0.03     0.20  -0.01   0.01
  11   7    -0.08   0.06  -0.05    -0.12   0.13  -0.11     0.24  -0.03   0.08
  12   7     0.03  -0.00   0.00    -0.09   0.05  -0.00     0.37   0.03   0.02
  13   1     0.02   0.00  -0.02     0.07  -0.03  -0.24     0.01  -0.05  -0.17
  14   1    -0.00   0.08   0.00    -0.01   0.21  -0.14    -0.08   0.15  -0.09
  15   1    -0.03   0.05   0.01     0.02  -0.04   0.01    -0.30   0.09   0.02
  16   1    -0.00   0.01   0.05     0.05   0.05  -0.00    -0.07   0.03   0.25
  17   1    -0.00   0.00   0.00    -0.02   0.05  -0.04     0.00   0.00  -0.02
  18   1    -0.01  -0.02  -0.00    -0.02  -0.01   0.00    -0.03  -0.01   0.02
  19   1    -0.37   0.52  -0.15     0.08  -0.18   0.07     0.05  -0.06  -0.01
  20   1     0.63   0.11   0.11     0.04  -0.16  -0.07    -0.16   0.03  -0.02
  21   1     0.02   0.04   0.03     0.21   0.10   0.06     0.06   0.04   0.05
  22   1    -0.00  -0.00   0.08     0.03   0.03   0.20    -0.07   0.02   0.13
  23   1    -0.00   0.03  -0.04     0.01   0.04  -0.12     0.05  -0.03   0.03
  24   1    -0.04  -0.03   0.05    -0.03  -0.05   0.11     0.08   0.00   0.02
  25   1     0.01   0.01  -0.00    -0.02   0.02  -0.03     0.11   0.05   0.01
  26   1     0.01  -0.06   0.03    -0.05  -0.04  -0.01    -0.02  -0.07   0.00
                     10                     11                     12
                        a                      a                      a 
 Frequencies --   364.4777               374.4338               396.2491
 Red. masses --    12.3246                10.6807                11.0116
 Frc consts  --     0.0000                 0.0000                 0.0000
 IR Inten    --     4.2762                 3.7709                33.9197
 Raman Activ --     0.0000                 0.0000                 0.0000
 Depolar     --     0.0000                 0.0000                 0.0000
 Atom AN      X      Y      Z        X      Y      Z        X      Y      Z
   1   6    -0.02  -0.23   0.05     0.01  -0.05  -0.06     0.04  -0.01  -0.03
   2   6    -0.08  -0.08  -0.16    -0.09  -0.03   0.12     0.10  -0.12   0.08
   3   6    -0.08   0.03  -0.06    -0.03  -0.04   0.06    -0.03  -0.00   0.26
   4   6    -0.06   0.16  -0.03     0.02   0.05  -0.03    -0.02  -0.00  -0.03
   5   8    -0.11   0.22  -0.03     0.26   0.20  -0.07     0.29  -0.10   0.01
   6   8    -0.50   0.31   0.19     0.22   0.22   0.11    -0.41  -0.17  -0.18
   7   7     0.23  -0.22   0.04    -0.12   0.12   0.03    -0.23   0.01   0.27
   8   6     0.04  -0.10  -0.01     0.09   0.05   0.06     0.10   0.17  -0.06
   9   7     0.14  -0.07   0.00     0.04  -0.09  -0.15     0.11   0.02  -0.30
  10   6     0.16  -0.07  -0.02    -0.06  -0.27  -0.12     0.08   0.07  -0.15
  11   7     0.01   0.08   0.03    -0.43   0.00  -0.11     0.05   0.09   0.01
  12   7     0.27  -0.04  -0.02     0.11  -0.29   0.07     0.01   0.04  -0.02
  13   1     0.01  -0.02   0.09     0.00  -0.04  -0.05    -0.04  -0.01  -0.02
  14   1    -0.01  -0.15   0.03     0.00   0.03  -0.03     0.02   0.01  -0.01
  15   1     0.02  -0.04  -0.04    -0.11   0.01   0.03     0.09  -0.11   0.04
  16   1    -0.03   0.01  -0.10    -0.00   0.01   0.11     0.02  -0.01  -0.06
  17   1     0.00  -0.02   0.00    -0.00  -0.02   0.03    -0.01  -0.00   0.08
  18   1    -0.16  -0.02   0.10     0.05   0.03  -0.02    -0.14  -0.13  -0.03
  19   1     0.05  -0.01  -0.02    -0.01   0.00   0.02    -0.10   0.01   0.12
  20   1     0.20  -0.07  -0.04    -0.11   0.04   0.04    -0.11   0.00   0.08
  21   1     0.01  -0.03  -0.00     0.09   0.08   0.01     0.08   0.14  -0.03
  22   1    -0.01  -0.00  -0.01    -0.01   0.02   0.10     0.00   0.05   0.07
  23   1     0.04   0.07  -0.03    -0.02   0.12  -0.18    -0.09  -0.01   0.22
  24   1    -0.05  -0.04   0.07    -0.22  -0.17   0.16    -0.05   0.04  -0.07
  25   1     0.08   0.01  -0.00     0.03  -0.04   0.07    -0.02  -0.01   0.05
  26   1    -0.01   0.10  -0.04     0.12   0.16  -0.00     0.14   0.10   0.07
                     13                     14                     15
                        a                      a                      a 
 Frequencies --   415.0839               446.5427               456.0973
 Red. masses --     3.6967                 4.4154                 7.4962
 Frc consts  --     0.0000                 0.0000                 0.0000
 IR Inten    --    22.1558                28.7509                30.8373
 Raman Activ --     0.0000                 0.0000                 0.0000
 Depolar     --     0.0000                 0.0000                 0.0000
 Atom AN      X      Y      Z        X      Y      Z        X      Y      Z
   1   6    -0.01   0.09  -0.03     0.09  -0.09   0.01     0.22  -0.35   0.01
   2   6     0.03   0.08  -0.04    -0.01  -0.03   0.09    -0.07  -0.15   0.16
   3   6    -0.01   0.05  -0.03     0.02  -0.14  -0.11    -0.05  -0.19  -0.04
   4   6    -0.02  -0.00   0.04    -0.01  -0.11   0.00    -0.01   0.02  -0.10
   5   8     0.01   0.10   0.02    -0.20  -0.05  -0.00     0.02   0.03  -0.13
   6   8     0.09   0.04   0.09     0.02  -0.03   0.17    -0.05   0.15  -0.02
   7   7     0.05  -0.06  -0.01     0.06   0.08  -0.16    -0.01   0.12  -0.07
   8   6    -0.03  -0.05   0.14     0.10  -0.01   0.02     0.31   0.01   0.05
   9   7    -0.04  -0.08   0.11    -0.04  -0.03  -0.04    -0.02   0.05   0.08
  10   6    -0.01  -0.13  -0.09    -0.05   0.07   0.11    -0.04   0.10   0.05
  11   7    -0.17  -0.05  -0.11     0.11   0.08  -0.07    -0.00   0.13  -0.03
  12   7     0.17  -0.11  -0.05    -0.15   0.09   0.00    -0.24   0.09  -0.09
  13   1     0.04   0.00  -0.05     0.01  -0.02   0.01     0.01  -0.07   0.06
  14   1    -0.04   0.07  -0.02     0.05  -0.03   0.00     0.11  -0.15   0.02
  15   1     0.03   0.01  -0.01    -0.11   0.06   0.01    -0.17   0.02   0.03
  16   1     0.00   0.02  -0.04     0.03  -0.00   0.14     0.04   0.02   0.21
  17   1    -0.01   0.03  -0.02     0.00  -0.04  -0.03    -0.01  -0.08   0.02
  18   1     0.03   0.03   0.02    -0.07  -0.17  -0.12     0.03   0.12   0.11
  19   1     0.01  -0.01  -0.00     0.04   0.03  -0.09     0.02   0.04  -0.07
  20   1     0.05  -0.03  -0.03     0.01   0.05   0.01    -0.05   0.07   0.06
  21   1     0.00  -0.02   0.04     0.08   0.05  -0.00     0.22   0.05   0.02
  22   1    -0.02   0.01   0.02     0.01  -0.01   0.07     0.02   0.04   0.13
  23   1    -0.25   0.02   0.53    -0.05  -0.06   0.13    -0.06   0.02   0.14
  24   1    -0.17   0.26  -0.55     0.04   0.04  -0.03    -0.02   0.08  -0.10
  25   1     0.07   0.04  -0.06    -0.05  -0.02   0.01    -0.06  -0.03  -0.10
  26   1    -0.01   0.01   0.00     0.28   0.68  -0.22    -0.17  -0.36   0.06
                     16                     17                     18
                        a                      a                      a 
 Frequencies --   483.3315               520.7499               531.9436
 Red. masses --     9.6440                 4.6785                10.0641
 Frc consts  --     0.0000                 0.0000                 0.0000
 IR Inten    --    51.4336               226.2651                 4.5783
 Raman Activ --     0.0000                 0.0000                 0.0000
 Depolar     --     0.0000                 0.0000                 0.0000
 Atom AN      X      Y      Z        X      Y      Z        X      Y      Z
   1   6    -0.11   0.09  -0.01     0.02  -0.00   0.00     0.00   0.20   0.04
   2   6     0.02  -0.04   0.05    -0.03   0.06  -0.06     0.25  -0.13   0.22
   3   6     0.33  -0.02  -0.07    -0.16   0.03   0.01     0.11  -0.21   0.03
   4   6     0.25   0.00   0.16    -0.11  -0.05  -0.05     0.03  -0.21  -0.10
   5   8    -0.15   0.17   0.11     0.10   0.03  -0.06     0.03   0.22  -0.34
   6   8    -0.14  -0.20   0.09     0.14   0.08   0.04    -0.19   0.07   0.30
   7   7     0.06   0.02  -0.20    -0.00  -0.02   0.08    -0.03   0.05  -0.07
   8   6    -0.10   0.03   0.02    -0.04  -0.11   0.02    -0.12  -0.04   0.03
   9   7     0.23   0.02  -0.02    -0.09  -0.07   0.04    -0.13  -0.12  -0.10
  10   6     0.19  -0.01  -0.16    -0.05   0.05  -0.11    -0.09   0.07  -0.05
  11   7    -0.04   0.25  -0.02     0.25   0.14  -0.23     0.04  -0.10   0.04
  12   7    -0.28  -0.17  -0.03     0.01   0.05   0.08     0.09   0.12   0.01
  13   1    -0.02  -0.01  -0.05     0.04   0.00  -0.00    -0.02  -0.04  -0.14
  14   1    -0.05   0.08  -0.02    -0.01   0.00  -0.00    -0.00   0.23  -0.03
  15   1    -0.05   0.04   0.00     0.03  -0.01  -0.01     0.12  -0.02   0.06
  16   1    -0.01  -0.09   0.09    -0.01   0.04  -0.07     0.04  -0.09   0.02
  17   1     0.15  -0.03  -0.05    -0.08   0.03   0.01     0.00  -0.03  -0.01
  18   1    -0.06  -0.12   0.04     0.05   0.06  -0.01     0.00   0.10   0.31
  19   1    -0.01  -0.00  -0.01     0.01  -0.01   0.01    -0.02   0.04  -0.04
  20   1    -0.04   0.01  -0.04     0.02  -0.01   0.00    -0.08   0.05   0.07
  21   1    -0.08  -0.01   0.01    -0.03  -0.06   0.01    -0.10  -0.01   0.00
  22   1    -0.02   0.01  -0.04     0.03  -0.07  -0.01     0.03  -0.07  -0.03
  23   1    -0.07   0.09   0.18    -0.23  -0.32   0.42     0.01  -0.10  -0.06
  24   1    -0.23  -0.14   0.16    -0.10  -0.35   0.45     0.11   0.03  -0.00
  25   1    -0.11  -0.18  -0.00     0.03   0.05  -0.03     0.04   0.10   0.01
  26   1    -0.13  -0.13  -0.05     0.00  -0.04   0.03    -0.05  -0.05  -0.12
                     19                     20                     21
                        a                      a                      a 
 Frequencies --   553.1886               586.4227               641.2291
 Red. masses --    11.3888                 9.2398                 8.4650
 Frc consts  --     0.0000                 0.0000                 0.0000
 IR Inten    --     9.9167                47.3658                88.8936
 Raman Activ --     0.0000                 0.0000                 0.0000
 Depolar     --     0.0000                 0.0000                 0.0000
 Atom AN      X      Y      Z        X      Y      Z        X      Y      Z
   1   6     0.05  -0.01  -0.02    -0.02   0.05   0.04     0.04   0.06   0.07
   2   6    -0.00   0.01  -0.00     0.13  -0.19   0.15     0.09  -0.11   0.14
   3   6    -0.09  -0.12  -0.14     0.17  -0.15   0.01    -0.26  -0.23  -0.08
   4   6    -0.12  -0.07   0.23     0.10   0.21  -0.05    -0.16   0.10  -0.02
   5   8    -0.01   0.27   0.33    -0.10  -0.17   0.03    -0.08  -0.16   0.16
   6   8    -0.05  -0.36   0.07    -0.11   0.23  -0.16    -0.04   0.07  -0.29
   7   7     0.12  -0.00  -0.15     0.00   0.04  -0.10     0.04   0.02  -0.08
   8   6     0.10   0.23  -0.17     0.01   0.16  -0.09     0.03   0.05   0.04
   9   7    -0.11   0.13  -0.13    -0.10   0.23   0.24     0.07   0.14   0.20
  10   6    -0.13   0.03  -0.24    -0.15  -0.15   0.14     0.20   0.03  -0.29
  11   7    -0.06  -0.19  -0.01    -0.06  -0.12  -0.17     0.02   0.03   0.10
  12   7     0.24   0.07   0.09     0.24  -0.03   0.05    -0.02  -0.13   0.07
  13   1    -0.06   0.04   0.08    -0.09  -0.02  -0.02    -0.02  -0.07  -0.12
  14   1     0.07  -0.09   0.02     0.02   0.05   0.00     0.01   0.17  -0.02
  15   1    -0.08   0.06  -0.01     0.04  -0.03   0.04     0.10  -0.01   0.04
  16   1     0.02   0.01   0.09     0.02  -0.09   0.05     0.02  -0.00  -0.04
  17   1    -0.03  -0.02  -0.05     0.09  -0.07  -0.01    -0.07  -0.06  -0.03
  18   1     0.02  -0.00   0.06    -0.17  -0.27  -0.28     0.13   0.34   0.20
  19   1     0.09  -0.00  -0.12    -0.01   0.02  -0.03     0.10   0.00  -0.15
  20   1     0.07   0.01  -0.02    -0.06   0.04   0.04     0.01   0.04   0.05
  21   1     0.10   0.13  -0.05    -0.06  -0.05  -0.01    -0.09  -0.07   0.02
  22   1     0.00   0.05   0.06     0.03   0.05  -0.12     0.05   0.02  -0.12
  23   1    -0.05  -0.14  -0.01    -0.08  -0.10   0.07     0.04   0.10   0.01
  24   1     0.04  -0.05   0.04    -0.04  -0.11   0.06    -0.10  -0.04   0.01
  25   1     0.08   0.16   0.09     0.12   0.17  -0.05    -0.02  -0.10   0.01
  26   1    -0.07  -0.07   0.10    -0.05  -0.08  -0.01     0.10   0.20   0.05
                     22                     23                     24
                        a                      a                      a 
 Frequencies --   651.6288               672.2450               724.3364
 Red. masses --     6.7340                 9.4703                10.7281
 Frc consts  --     0.0000                 0.0000                 0.0000
 IR Inten    --   119.6077                80.1100                61.6094
 Raman Activ --     0.0000                 0.0000                 0.0000
 Depolar     --     0.0000                 0.0000                 0.0000
 Atom AN      X      Y      Z        X      Y      Z        X      Y      Z
   1   6    -0.02  -0.10  -0.07    -0.08   0.10   0.00    -0.04   0.12  -0.06
   2   6    -0.03   0.01  -0.09    -0.02  -0.01   0.01    -0.07   0.08  -0.07
   3   6     0.38   0.21   0.09    -0.04  -0.04  -0.02    -0.19  -0.06   0.01
   4   6     0.19   0.06  -0.02    -0.03  -0.02   0.02     0.02  -0.22  -0.08
   5   8    -0.09  -0.17  -0.07    -0.01   0.02   0.05     0.01  -0.08  -0.37
   6   8    -0.10  -0.06  -0.12    -0.04  -0.14  -0.04     0.04  -0.16   0.27
   7   7    -0.03  -0.01   0.05     0.01  -0.00  -0.01    -0.06   0.00   0.12
   8   6     0.01   0.00  -0.02     0.03   0.21  -0.15     0.08   0.28  -0.16
   9   7    -0.11   0.08   0.19     0.09   0.02  -0.16    -0.02   0.22   0.32
  10   6    -0.10   0.03  -0.19    -0.06  -0.25   0.65     0.19  -0.04  -0.12
  11   7    -0.11  -0.14  -0.04     0.07   0.11  -0.17     0.06   0.03   0.08
  12   7     0.03   0.03   0.10     0.07  -0.10  -0.20    -0.00  -0.17   0.12
  13   1    -0.00   0.06   0.12    -0.08   0.03   0.02    -0.10   0.11   0.12
  14   1     0.01  -0.19   0.02    -0.01   0.01   0.01     0.04  -0.11   0.02
  15   1    -0.11  -0.01  -0.03     0.01  -0.00   0.00    -0.03   0.01  -0.02
  16   1     0.00  -0.03   0.08    -0.02  -0.02  -0.01    -0.01   0.05  -0.02
  17   1     0.14   0.02   0.04    -0.02  -0.01  -0.00    -0.11   0.02   0.02
  18   1     0.12   0.29   0.40     0.12   0.26   0.30    -0.04  -0.16   0.01
  19   1    -0.13   0.01   0.17     0.01   0.00  -0.02     0.02  -0.00  -0.02
  20   1    -0.03  -0.03  -0.05     0.00   0.00   0.01     0.02   0.01   0.04
  21   1     0.07  -0.02   0.00    -0.02   0.06  -0.04     0.04   0.01  -0.02
  22   1    -0.03   0.02   0.04     0.01   0.06  -0.06     0.00   0.11  -0.07
  23   1    -0.06  -0.10   0.01    -0.02   0.04   0.09     0.07   0.15   0.01
  24   1    -0.02  -0.06   0.04    -0.05  -0.06   0.05    -0.11  -0.04  -0.01
  25   1     0.06   0.12  -0.07     0.05  -0.05  -0.20     0.08   0.01  -0.23
  26   1     0.09   0.19  -0.12     0.02   0.06   0.02    -0.01  -0.03  -0.16
                     25                     26                     27
                        a                      a                      a 
 Frequencies --   768.9120               868.1252               870.5545
 Red. masses --     4.0302                 8.2671                 5.4463
 Frc consts  --     0.0000                 0.0000                 0.0000
 IR Inten    --    67.9418                 6.3474                 8.9160
 Raman Activ --     0.0000                 0.0000                 0.0000
 Depolar     --     0.0000                 0.0000                 0.0000
 Atom AN      X      Y      Z        X      Y      Z        X      Y      Z
   1   6     0.00  -0.03   0.03     0.12  -0.09   0.17    -0.06  -0.16   0.06
   2   6     0.01  -0.01   0.03    -0.28   0.07  -0.16    -0.20   0.12   0.33
   3   6     0.02   0.02  -0.01    -0.18  -0.07  -0.02    -0.07   0.15   0.03
   4   6    -0.01   0.05   0.05     0.32   0.11   0.04     0.17   0.08   0.02
   5   8     0.01   0.05   0.11    -0.01  -0.05  -0.07    -0.00  -0.04  -0.05
   6   8     0.02   0.05  -0.07    -0.01  -0.16   0.06     0.03  -0.09   0.04
   7   7     0.01   0.00  -0.04    -0.03  -0.01   0.11     0.06   0.01  -0.19
   8   6    -0.03  -0.09   0.01     0.20   0.06   0.18    -0.02  -0.13  -0.21
   9   7     0.02  -0.11  -0.23     0.24   0.15  -0.09    -0.01   0.07   0.07
  10   6     0.02   0.05  -0.05    -0.13   0.04   0.02     0.00  -0.01   0.01
  11   7    -0.01  -0.00   0.11    -0.17  -0.12  -0.08    -0.03  -0.03  -0.03
  12   7    -0.15  -0.05   0.29    -0.06   0.13   0.01    -0.00   0.02  -0.00
  13   1     0.03  -0.04  -0.05     0.17  -0.12  -0.14    -0.05  -0.11  -0.09
  14   1    -0.01   0.05  -0.01    -0.12   0.18  -0.02     0.24   0.13   0.00
  15   1     0.03  -0.00   0.01    -0.01   0.03  -0.04     0.39  -0.07   0.13
  16   1    -0.01  -0.01  -0.02    -0.06   0.12  -0.13    -0.16   0.02  -0.36
  17   1     0.02  -0.00  -0.01     0.06  -0.12   0.02     0.02   0.04  -0.05
  18   1    -0.02  -0.03  -0.06    -0.02  -0.09   0.14     0.00  -0.03   0.06
  19   1     0.01  -0.01  -0.01     0.06  -0.01  -0.05     0.01   0.00  -0.05
  20   1     0.01  -0.00  -0.01     0.01   0.01   0.04    -0.03   0.00  -0.04
  21   1    -0.01   0.05  -0.01    -0.21  -0.08   0.04     0.27   0.08  -0.05
  22   1    -0.01  -0.03   0.04     0.16   0.00  -0.22    -0.18   0.06   0.21
  23   1     0.03   0.01  -0.04    -0.07  -0.11  -0.03    -0.01  -0.01   0.01
  24   1     0.03   0.03   0.00     0.02  -0.01  -0.01    -0.02  -0.02   0.01
  25   1     0.23   0.23  -0.80     0.01   0.14   0.01    -0.01   0.00   0.03
  26   1     0.01   0.02   0.06    -0.01  -0.01  -0.14    -0.00  -0.00  -0.08
                     28                     29                     30
                        a                      a                      a 
 Frequencies --   910.1887               951.5435               990.4983
 Red. masses --     7.6934                 8.1967                 6.1696
 Frc consts  --     0.0000                 0.0000                 0.0000
 IR Inten    --    15.6507                43.2956               144.7598
 Raman Activ --     0.0000                 0.0000                 0.0000
 Depolar     --     0.0000                 0.0000                 0.0000
 Atom AN      X      Y      Z        X      Y      Z        X      Y      Z
   1   6     0.03   0.42  -0.08     0.05  -0.18  -0.07     0.12  -0.14  -0.07
   2   6    -0.20   0.12  -0.12     0.36   0.12  -0.03     0.05   0.20  -0.06
   3   6    -0.02  -0.39   0.02    -0.15  -0.09  -0.12    -0.03  -0.14   0.12
   4   6     0.21   0.11   0.05     0.25   0.13   0.10    -0.02  -0.15  -0.14
   5   8    -0.01   0.00   0.09     0.01  -0.04  -0.03    -0.02   0.04   0.12
   6   8    -0.03   0.11  -0.12    -0.01   0.00  -0.05    -0.01   0.03  -0.02
   7   7    -0.01  -0.06   0.12    -0.20   0.05   0.27     0.28  -0.16  -0.16
   8   6     0.01  -0.16  -0.06    -0.41  -0.10  -0.03    -0.24  -0.01   0.08
   9   7    -0.08  -0.16  -0.01     0.01   0.11  -0.03     0.05   0.18  -0.04
  10   6     0.02  -0.00  -0.02     0.01  -0.02   0.06    -0.03  -0.00   0.05
  11   7    -0.00   0.03   0.01     0.00  -0.04  -0.03     0.08  -0.08  -0.01
  12   7    -0.01   0.00  -0.00     0.00   0.00  -0.01    -0.01   0.01  -0.01
  13   1     0.07   0.26   0.20     0.05  -0.06  -0.04     0.19  -0.01  -0.01
  14   1     0.12  -0.10   0.04     0.01  -0.03  -0.02    -0.02  -0.04  -0.02
  15   1     0.03   0.03  -0.03    -0.05   0.15  -0.04    -0.01  -0.01  -0.01
  16   1    -0.09  -0.03  -0.12     0.17   0.15   0.15     0.07   0.22  -0.03
  17   1     0.14  -0.21  -0.01    -0.00   0.01  -0.13    -0.10   0.00   0.09
  18   1    -0.02  -0.02   0.06    -0.02  -0.06   0.10    -0.01  -0.02   0.02
  19   1     0.04   0.05  -0.12     0.21  -0.09  -0.16    -0.29   0.20   0.13
  20   1    -0.11   0.09   0.26     0.18  -0.01   0.02    -0.37   0.09   0.25
  21   1     0.16   0.02  -0.01     0.03   0.10  -0.02    -0.07   0.04   0.01
  22   1     0.02  -0.12   0.16    -0.25   0.06   0.17    -0.15   0.10   0.01
  23   1    -0.01  -0.02   0.00     0.00   0.02   0.01     0.07   0.15   0.02
  24   1     0.04   0.03  -0.00    -0.05  -0.05   0.01    -0.15  -0.09  -0.02
  25   1    -0.01  -0.04   0.00     0.00   0.02   0.01     0.02   0.11   0.02
  26   1    -0.01  -0.01  -0.05    -0.01  -0.02  -0.12    -0.01   0.00  -0.00
                     31                     32                     33
                        a                      a                      a 
 Frequencies --  1011.8643              1026.3979              1035.6633
 Red. masses --     6.4670                 7.2877                 9.2122
 Frc consts  --     0.0000                 0.0000                 0.0000
 IR Inten    --    14.3406                35.3089               167.6721
 Raman Activ --     0.0000                 0.0000                 0.0000
 Depolar     --     0.0000                 0.0000                 0.0000
 Atom AN      X      Y      Z        X      Y      Z        X      Y      Z
   1   6     0.05  -0.05   0.27    -0.09   0.13  -0.09     0.11   0.07  -0.03
   2   6    -0.13   0.03  -0.22    -0.01  -0.07   0.12    -0.02  -0.10   0.03
   3   6     0.25  -0.10  -0.18    -0.04   0.06   0.00    -0.05   0.05   0.12
   4   6    -0.18  -0.09  -0.04     0.11  -0.26  -0.22    -0.11   0.40   0.35
   5   8    -0.02   0.02   0.00    -0.01   0.07   0.23     0.04  -0.11  -0.34
   6   8    -0.01   0.01   0.02    -0.00   0.12  -0.09     0.00  -0.16   0.11
   7   7    -0.07   0.04   0.26    -0.13   0.06   0.01     0.06  -0.02  -0.17
   8   6     0.06  -0.05  -0.15     0.11  -0.12   0.08    -0.05  -0.03   0.07
   9   7    -0.17   0.11   0.01     0.16  -0.02  -0.04    -0.17  -0.01  -0.12
  10   6    -0.01  -0.00   0.01    -0.02   0.08   0.06     0.01   0.01   0.03
  11   7     0.16  -0.07   0.01     0.07  -0.28  -0.08     0.17  -0.15  -0.02
  12   7     0.01   0.01  -0.00    -0.11   0.22   0.02    -0.02   0.10   0.01
  13   1     0.10  -0.15  -0.17    -0.04   0.10   0.10     0.08   0.06   0.05
  14   1     0.09   0.28   0.01    -0.02  -0.10   0.01    -0.05  -0.06   0.00
  15   1     0.04   0.33  -0.11     0.01  -0.12   0.05    -0.06  -0.19   0.04
  16   1    -0.09  -0.20   0.00    -0.04  -0.10  -0.01     0.02   0.05   0.02
  17   1     0.10  -0.11   0.05    -0.11   0.12  -0.04     0.13  -0.09  -0.01
  18   1     0.01   0.05  -0.06    -0.02  -0.06   0.08     0.03   0.08  -0.08
  19   1    -0.03  -0.02   0.13     0.12  -0.08  -0.07     0.03  -0.00  -0.07
  20   1     0.03  -0.02   0.00     0.15  -0.03  -0.10     0.01   0.00  -0.04
  21   1     0.08   0.11  -0.06     0.05  -0.07   0.03    -0.07   0.05   0.00
  22   1    -0.03  -0.01   0.08     0.04  -0.02  -0.03     0.07  -0.11   0.03
  23   1     0.11   0.23   0.04     0.11   0.25   0.03     0.13   0.27   0.05
  24   1    -0.20  -0.11  -0.04    -0.34  -0.21  -0.08    -0.26  -0.15  -0.06
  25   1     0.01   0.07   0.04     0.00   0.27   0.08    -0.00   0.08   0.04
  26   1     0.00   0.01   0.08    -0.02  -0.01  -0.07     0.03   0.01   0.10
                     34                     35                     36
                        a                      a                      a 
 Frequencies --  1056.3312              1083.0413              1090.7227
 Red. masses --     9.1433                 6.9656                 6.2210
 Frc consts  --     0.0000                 0.0000                 0.0000
 IR Inten    --    19.2339                46.3901                18.4499
 Raman Activ --     0.0000                 0.0000                 0.0000
 Depolar     --     0.0000                 0.0000                 0.0000
 Atom AN      X      Y      Z        X      Y      Z        X      Y      Z
   1   6     0.11   0.00   0.09     0.26  -0.01  -0.09     0.17   0.25   0.10
   2   6    -0.04  -0.12  -0.03    -0.17  -0.02   0.07    -0.02  -0.26  -0.10
   3   6    -0.16   0.08   0.06     0.23  -0.04   0.08    -0.22  -0.01   0.06
   4   6     0.32   0.10  -0.23    -0.16  -0.01  -0.34     0.02  -0.03   0.11
   5   8    -0.01   0.05   0.23    -0.06   0.04   0.04     0.02  -0.03  -0.05
   6   8     0.07   0.00  -0.04     0.03  -0.11   0.10    -0.02   0.02  -0.03
   7   7     0.01   0.05  -0.09    -0.18   0.05  -0.01     0.07   0.08  -0.15
   8   6    -0.02   0.07  -0.04    -0.19   0.04   0.12    -0.15  -0.16  -0.03
   9   7    -0.44  -0.07  -0.03    -0.02   0.22  -0.03     0.20   0.21   0.01
  10   6    -0.07  -0.10  -0.07    -0.04  -0.05  -0.01     0.06   0.01   0.05
  11   7     0.21   0.16   0.10     0.03   0.11   0.04    -0.13  -0.03  -0.05
  12   7     0.03  -0.19  -0.04     0.04  -0.14  -0.02     0.01   0.03   0.01
  13   1    -0.04  -0.06  -0.05     0.41   0.10   0.06     0.24   0.09   0.03
  14   1    -0.04   0.06   0.00     0.06  -0.08  -0.01     0.16   0.08   0.03
  15   1    -0.08  -0.08  -0.00     0.04  -0.22   0.06    -0.10  -0.00  -0.04
  16   1     0.05   0.13   0.01    -0.09  -0.07  -0.09    -0.04  -0.24   0.12
  17   1    -0.06  -0.04   0.15     0.12  -0.03  -0.05    -0.21  -0.02   0.28
  18   1    -0.04  -0.19   0.22    -0.00  -0.05   0.05    -0.00   0.01  -0.02
  19   1    -0.04  -0.03   0.10     0.19  -0.10  -0.16    -0.11  -0.03   0.21
  20   1     0.05  -0.06  -0.18     0.17  -0.00  -0.03     0.06  -0.11  -0.30
  21   1    -0.08   0.12  -0.04    -0.09   0.01   0.02     0.07   0.08  -0.02
  22   1     0.16  -0.18   0.05    -0.10   0.10  -0.04    -0.14   0.02   0.13
  23   1     0.09   0.15   0.04    -0.01  -0.03   0.00    -0.06  -0.11  -0.02
  24   1     0.03   0.05  -0.00     0.09   0.05   0.03     0.04   0.01   0.01
  25   1     0.01  -0.00   0.04     0.02   0.01  -0.00    -0.00  -0.05  -0.03
  26   1    -0.03  -0.02  -0.11     0.02   0.04   0.23    -0.01  -0.02  -0.10
                     37                     38                     39
                        a                      a                      a 
 Frequencies --  1098.7279              1124.8983              1134.0594
 Red. masses --     9.3165                 7.4945                 4.8225
 Frc consts  --     0.0000                 0.0000                 0.0000
 IR Inten    --    32.2875                48.4236                67.8974
 Raman Activ --     0.0000                 0.0000                 0.0000
 Depolar     --     0.0000                 0.0000                 0.0000
 Atom AN      X      Y      Z        X      Y      Z        X      Y      Z
   1   6    -0.11   0.08  -0.00     0.21  -0.05  -0.05     0.07  -0.00  -0.18
   2   6     0.14  -0.03  -0.02    -0.10   0.02  -0.02    -0.01  -0.01   0.04
   3   6    -0.09  -0.04  -0.04     0.06  -0.07   0.05    -0.05  -0.06  -0.10
   4   6    -0.02   0.42  -0.48     0.02  -0.12  -0.04    -0.03   0.06   0.09
   5   8    -0.10   0.03   0.01     0.01   0.04   0.08    -0.00  -0.02  -0.06
   6   8     0.11  -0.27   0.21    -0.04   0.07  -0.01     0.01  -0.01   0.00
   7   7     0.04   0.00   0.03    -0.05   0.07  -0.05     0.03   0.07   0.04
   8   6     0.03  -0.13   0.00    -0.19   0.32  -0.01    -0.12   0.11   0.22
   9   7     0.09  -0.04   0.02    -0.06  -0.33   0.08     0.13  -0.12  -0.06
  10   6     0.11   0.05   0.03     0.17   0.11   0.06    -0.18  -0.07  -0.06
  11   7    -0.10  -0.12  -0.06    -0.09  -0.20  -0.08     0.12   0.14   0.08
  12   7    -0.02   0.15   0.06     0.05   0.25   0.09    -0.11  -0.18  -0.09
  13   1    -0.18   0.01   0.01    -0.09  -0.03  -0.02    -0.23   0.02   0.04
  14   1     0.04   0.00   0.01     0.21   0.02  -0.00     0.39  -0.05   0.01
  15   1    -0.01   0.14  -0.03     0.02  -0.01  -0.00     0.11   0.20  -0.02
  16   1     0.05  -0.01   0.06     0.04   0.25  -0.09    -0.01   0.01  -0.04
  17   1    -0.02  -0.06   0.07     0.15  -0.22   0.17     0.05  -0.15   0.12
  18   1    -0.02  -0.14   0.14     0.01   0.08  -0.11     0.01  -0.00   0.02
  19   1    -0.08   0.03   0.09     0.03  -0.07   0.05    -0.06  -0.02   0.16
  20   1    -0.05  -0.00   0.00     0.10  -0.05  -0.16     0.04  -0.06  -0.14
  21   1     0.09  -0.07   0.01    -0.11   0.02   0.02     0.03  -0.27   0.12
  22   1    -0.03   0.00   0.02    -0.05   0.11  -0.08    -0.06   0.11  -0.11
  23   1    -0.03  -0.05  -0.02    -0.02  -0.05  -0.03     0.04   0.07   0.02
  24   1    -0.05  -0.04  -0.02    -0.13  -0.09  -0.04     0.07   0.05   0.03
  25   1    -0.02  -0.09  -0.04    -0.05  -0.31  -0.10     0.05   0.41   0.13
  26   1     0.04   0.06   0.38    -0.01  -0.01  -0.02     0.01   0.01   0.03
                     40                     41                     42
                        a                      a                      a 
 Frequencies --  1161.4630              1185.6203              1199.7403
 Red. masses --     6.4301                 6.9691                 5.8870
 Frc consts  --     0.0000                 0.0000                 0.0000
 IR Inten    --    33.0275                97.6179               246.5895
 Raman Activ --     0.0000                 0.0000                 0.0000
 Depolar     --     0.0000                 0.0000                 0.0000
 Atom AN      X      Y      Z        X      Y      Z        X      Y      Z
   1   6     0.18  -0.04  -0.12     0.10  -0.00   0.15     0.08   0.14   0.17
   2   6    -0.07  -0.19   0.08    -0.03  -0.11  -0.20    -0.00  -0.19  -0.12
   3   6    -0.07   0.14  -0.38    -0.08   0.19   0.18    -0.02   0.19  -0.01
   4   6     0.09   0.15  -0.03     0.07  -0.05   0.10    -0.07   0.08  -0.27
   5   8     0.03   0.00   0.09    -0.06   0.00  -0.10     0.07  -0.00   0.14
   6   8    -0.00  -0.08   0.06     0.09   0.11  -0.12    -0.07  -0.14   0.17
   7   7     0.07  -0.02   0.23     0.02  -0.12  -0.07    -0.02  -0.06   0.04
   8   6    -0.09   0.14   0.16    -0.08   0.23  -0.16    -0.09  -0.03  -0.13
   9   7    -0.15  -0.05  -0.08     0.07  -0.35   0.15     0.19  -0.08   0.12
  10   6     0.04   0.02   0.01     0.01   0.01  -0.01    -0.02  -0.01  -0.00
  11   7     0.01  -0.05  -0.01     0.00  -0.00   0.00    -0.02   0.03   0.01
  12   7     0.05   0.07   0.04    -0.09   0.03  -0.02    -0.09  -0.06  -0.03
  13   1     0.08   0.03   0.03     0.07  -0.04  -0.04    -0.13  -0.03  -0.03
  14   1     0.23  -0.05  -0.00     0.16   0.15   0.02     0.08   0.12   0.03
  15   1     0.04  -0.04   0.02    -0.12  -0.04  -0.05    -0.16  -0.22  -0.01
  16   1    -0.12  -0.33   0.01    -0.03  -0.18   0.10     0.09   0.17   0.05
  17   1    -0.14   0.23  -0.26    -0.04   0.16  -0.14     0.19  -0.07  -0.09
  18   1     0.01   0.04  -0.05    -0.05  -0.22   0.23     0.08   0.29  -0.29
  19   1    -0.11   0.10   0.09     0.07   0.04  -0.20     0.04   0.02  -0.11
  20   1    -0.16   0.05   0.17    -0.08   0.06   0.15    -0.06   0.05   0.14
  21   1    -0.11  -0.03   0.04     0.01   0.02  -0.02     0.05   0.08  -0.04
  22   1     0.04   0.01  -0.08    -0.10   0.14  -0.02    -0.05  -0.02   0.09
  23   1     0.01   0.02  -0.00    -0.00  -0.01  -0.00    -0.01  -0.01   0.00
  24   1    -0.05  -0.03  -0.02     0.00  -0.00   0.00     0.04   0.03   0.01
  25   1    -0.02  -0.19  -0.07    -0.00   0.16   0.07     0.03   0.25   0.06
  26   1    -0.03  -0.03  -0.20     0.04   0.05   0.30    -0.03  -0.05  -0.30
                     43                     44                     45
                        a                      a                      a 
 Frequencies --  1218.7717              1224.8794              1267.0202
 Red. masses --     6.1356                 6.4960                 3.8567
 Frc consts  --     0.0000                 0.0000                 0.0000
 IR Inten    --    78.3876                17.3126                38.8928
 Raman Activ --     0.0000                 0.0000                 0.0000
 Depolar     --     0.0000                 0.0000                 0.0000
 Atom AN      X      Y      Z        X      Y      Z        X      Y      Z
   1   6     0.10   0.05   0.01    -0.11  -0.08  -0.01     0.09  -0.14  -0.19
   2   6    -0.09  -0.10  -0.15     0.08   0.09  -0.15    -0.03   0.10   0.03
   3   6     0.06   0.15   0.09    -0.03   0.04   0.47     0.05  -0.07   0.14
   4   6    -0.03  -0.21   0.06     0.02   0.12  -0.12     0.00   0.08  -0.07
   5   8    -0.03   0.01  -0.05     0.08  -0.01   0.10    -0.00  -0.01  -0.00
   6   8     0.01   0.05  -0.06    -0.05  -0.07   0.07    -0.03  -0.03   0.04
   7   7    -0.02  -0.07  -0.02    -0.05  -0.11  -0.21    -0.04  -0.03  -0.07
   8   6    -0.08  -0.18   0.23     0.08   0.00   0.11    -0.13   0.10  -0.03
   9   7     0.00   0.39  -0.12    -0.15   0.02  -0.13     0.16  -0.06   0.17
  10   6     0.02   0.01   0.03    -0.06  -0.01  -0.03     0.12   0.00   0.04
  11   7    -0.04  -0.03  -0.03     0.06   0.00   0.02    -0.08  -0.02  -0.03
  12   7     0.09  -0.01   0.02     0.06   0.01   0.03    -0.09  -0.02  -0.03
  13   1    -0.44  -0.07  -0.02     0.03  -0.01  -0.00    -0.07  -0.02  -0.00
  14   1     0.37   0.06   0.03     0.14   0.04   0.00     0.02  -0.10  -0.04
  15   1    -0.08  -0.02  -0.04     0.02   0.29  -0.08     0.13   0.26  -0.03
  16   1     0.04   0.13  -0.01    -0.05  -0.25   0.10    -0.09  -0.20  -0.02
  17   1     0.06   0.05  -0.08    -0.04   0.04   0.12    -0.17   0.09   0.11
  18   1    -0.02  -0.09   0.09     0.03   0.11  -0.11     0.02   0.10  -0.09
  19   1     0.07   0.01  -0.14     0.14  -0.03  -0.25     0.05  -0.02  -0.07
  20   1    -0.03   0.03   0.10     0.02   0.03   0.06     0.02   0.01   0.02
  21   1    -0.03   0.01   0.04     0.08  -0.21   0.07    -0.28   0.39  -0.10
  22   1     0.15  -0.24   0.08    -0.06   0.14  -0.11     0.28  -0.37   0.14
  23   1    -0.01  -0.00   0.00     0.03   0.04   0.01    -0.03  -0.03   0.00
  24   1    -0.01  -0.00  -0.00    -0.02  -0.01  -0.00     0.03   0.02  -0.01
  25   1    -0.00  -0.17  -0.06    -0.01  -0.14  -0.05     0.01   0.20   0.06
  26   1     0.01   0.02   0.13    -0.03  -0.05  -0.29     0.00   0.00   0.01
                     46                     47                     48
                        a                      a                      a 
 Frequencies --  1287.8528              1322.5957              1340.5935
 Red. masses --     4.6564                 4.0402                 4.9996
 Frc consts  --     0.0000                 0.0000                 0.0000
 IR Inten    --    50.4453                 2.5048                22.6622
 Raman Activ --     0.0000                 0.0000                 0.0000
 Depolar     --     0.0000                 0.0000                 0.0000
 Atom AN      X      Y      Z        X      Y      Z        X      Y      Z
   1   6     0.01  -0.01  -0.12    -0.37  -0.04  -0.01     0.21   0.04   0.02
   2   6     0.10  -0.08   0.11    -0.01  -0.27   0.01    -0.07  -0.19   0.11
   3   6    -0.35   0.30   0.06    -0.03  -0.06   0.13    -0.01   0.24  -0.14
   4   6    -0.06  -0.20  -0.06     0.09  -0.05  -0.03     0.23  -0.12   0.00
   5   8     0.02   0.01   0.02    -0.03   0.01  -0.02    -0.07   0.02  -0.04
   6   8     0.04   0.04  -0.03    -0.04  -0.00   0.03    -0.06  -0.00   0.03
   7   7     0.10  -0.00   0.01     0.05   0.06   0.01    -0.05  -0.11  -0.00
   8   6     0.01  -0.02   0.01    -0.03   0.14  -0.03    -0.20   0.13  -0.08
   9   7     0.01   0.06   0.03     0.04   0.01   0.01     0.04   0.04  -0.03
  10   6     0.01   0.01   0.01    -0.03   0.01  -0.01    -0.11   0.01  -0.02
  11   7    -0.02  -0.01  -0.01    -0.01  -0.01  -0.00     0.02  -0.00   0.00
  12   7     0.01   0.00   0.00     0.01  -0.00   0.00     0.05  -0.02   0.01
  13   1     0.08   0.04   0.03     0.43   0.09   0.04     0.01  -0.01  -0.00
  14   1    -0.11  -0.10  -0.02     0.26   0.07   0.02    -0.34  -0.08  -0.02
  15   1     0.09   0.24  -0.01     0.02   0.22  -0.05     0.10   0.22  -0.01
  16   1    -0.04  -0.21   0.05     0.13   0.32  -0.03    -0.00   0.03  -0.03
  17   1     0.56  -0.37  -0.17     0.03   0.14  -0.30    -0.09  -0.05   0.30
  18   1    -0.02  -0.08   0.07     0.02   0.09  -0.10     0.03   0.14  -0.15
  19   1    -0.05   0.06   0.01    -0.04   0.02   0.07     0.07  -0.00  -0.14
  20   1    -0.08  -0.02  -0.04     0.01  -0.03  -0.10    -0.04   0.05   0.16
  21   1    -0.09   0.12  -0.03     0.11  -0.09   0.03     0.28  -0.30   0.08
  22   1     0.02  -0.03  -0.00     0.22  -0.22   0.03     0.08  -0.14   0.07
  23   1    -0.01  -0.01  -0.01     0.00   0.03   0.01     0.02   0.05   0.02
  24   1    -0.00   0.00  -0.00     0.01   0.01  -0.00     0.01   0.00   0.00
  25   1    -0.00  -0.03  -0.01     0.00  -0.01  -0.01     0.00  -0.06  -0.03
  26   1    -0.00  -0.01  -0.03     0.01   0.02   0.10     0.03   0.05   0.22
                     49                     50                     51
                        a                      a                      a 
 Frequencies --  1344.4224              1349.6015              1363.9776
 Red. masses --     4.8453                 5.3791                 5.8189
 Frc consts  --     0.0000                 0.0000                 0.0000
 IR Inten    --     3.1204                 5.9005                49.5970
 Raman Activ --     0.0000                 0.0000                 0.0000
 Depolar     --     0.0000                 0.0000                 0.0000
 Atom AN      X      Y      Z        X      Y      Z        X      Y      Z
   1   6    -0.30  -0.16   0.03    -0.19   0.05  -0.08    -0.09   0.03  -0.05
   2   6     0.20   0.31  -0.03    -0.00  -0.28   0.10     0.05   0.01   0.00
   3   6    -0.08   0.09  -0.20     0.14   0.26  -0.22    -0.12   0.04  -0.03
   4   6     0.03  -0.05  -0.00    -0.17   0.05   0.07     0.44  -0.14  -0.01
   5   8    -0.02   0.01  -0.00     0.04  -0.01   0.01    -0.12   0.04  -0.07
   6   8     0.00   0.01   0.00     0.08   0.01  -0.04    -0.14  -0.01   0.07
   7   7    -0.03  -0.05   0.02    -0.08  -0.13   0.01    -0.00  -0.01   0.02
   8   6    -0.05   0.14  -0.01     0.15  -0.10   0.04     0.22  -0.17   0.06
   9   7     0.05   0.02   0.01    -0.06  -0.03   0.01    -0.09  -0.01   0.03
  10   6    -0.03  -0.01  -0.01     0.09  -0.01   0.02    -0.16   0.01  -0.04
  11   7    -0.01  -0.02  -0.01    -0.01   0.01  -0.00     0.06   0.03   0.02
  12   7     0.01   0.02   0.01    -0.03   0.01  -0.01     0.05  -0.05  -0.00
  13   1     0.19  -0.02  -0.03     0.19   0.10   0.06    -0.03   0.03   0.02
  14   1     0.28   0.07   0.02     0.15   0.00   0.01     0.14   0.01   0.00
  15   1    -0.07  -0.41   0.08     0.07   0.18  -0.02    -0.05  -0.03  -0.00
  16   1    -0.01  -0.20   0.14     0.10   0.26  -0.03    -0.00  -0.03  -0.01
  17   1     0.05  -0.24   0.32    -0.10  -0.08   0.40    -0.03  -0.02   0.05
  18   1     0.00   0.00  -0.01    -0.03  -0.14   0.15     0.06   0.28  -0.30
  19   1     0.03  -0.01  -0.05     0.09  -0.01  -0.17     0.01   0.01  -0.02
  20   1    -0.02   0.02   0.08    -0.05   0.06   0.20    -0.01  -0.01  -0.00
  21   1     0.08  -0.09   0.03    -0.17   0.20  -0.06    -0.29   0.25  -0.07
  22   1     0.21  -0.22   0.04    -0.07   0.13  -0.08    -0.17   0.22  -0.06
  23   1     0.01   0.04   0.02    -0.01  -0.05  -0.02     0.02   0.04   0.02
  24   1     0.01   0.01  -0.00    -0.01  -0.00  -0.00     0.01  -0.00   0.02
  25   1    -0.00  -0.03  -0.02    -0.00   0.04   0.03     0.01  -0.03  -0.01
  26   1     0.00   0.01   0.04    -0.02  -0.03  -0.13     0.04   0.07   0.37
                     52                     53                     54
                        a                      a                      a 
 Frequencies --  1389.2962              1458.5164              1469.2693
 Red. masses --     9.1969                 2.0822                 2.2501
 Frc consts  --     0.0000                 0.0000                 0.0000
 IR Inten    --   326.7403                 1.1454                18.2315
 Raman Activ --     0.0000                 0.0000                 0.0000
 Depolar     --     0.0000                 0.0000                 0.0000
 Atom AN      X      Y      Z        X      Y      Z        X      Y      Z
   1   6     0.01   0.02  -0.03     0.02  -0.01  -0.02     0.02  -0.10  -0.06
   2   6    -0.01  -0.02   0.01    -0.20   0.01  -0.16    -0.09  -0.01  -0.07
   3   6     0.03  -0.02  -0.00    -0.02  -0.01   0.00    -0.00   0.01  -0.01
   4   6    -0.12   0.07  -0.01     0.03   0.00  -0.00    -0.01  -0.02  -0.01
   5   8     0.02  -0.02  -0.00    -0.01  -0.00  -0.00    -0.00   0.00   0.01
   6   8     0.04   0.00  -0.01    -0.01  -0.00   0.00     0.00   0.00   0.00
   7   7    -0.01   0.00  -0.00     0.00   0.00   0.00     0.01  -0.00   0.02
   8   6    -0.02  -0.00  -0.07    -0.09  -0.07   0.07     0.16   0.07  -0.11
   9   7     0.36  -0.09   0.15     0.02  -0.02   0.03    -0.05   0.04  -0.04
  10   6    -0.59  -0.18  -0.20    -0.08  -0.01  -0.02     0.12   0.01   0.02
  11   7     0.12   0.01   0.03     0.04   0.04   0.03    -0.08  -0.08  -0.06
  12   7     0.10   0.22   0.09     0.01  -0.00   0.00    -0.02   0.01  -0.00
  13   1    -0.02   0.02   0.02    -0.03   0.04   0.07    -0.04   0.15   0.24
  14   1     0.00   0.00  -0.01    -0.04   0.06  -0.02    -0.05   0.26  -0.07
  15   1    -0.00   0.03  -0.00     0.57  -0.12   0.05     0.28  -0.05   0.02
  16   1     0.00   0.03  -0.02     0.14   0.07   0.55     0.07   0.04   0.26
  17   1    -0.02   0.02   0.00    -0.01   0.01  -0.02     0.01  -0.00  -0.01
  18   1    -0.01  -0.08   0.08     0.00   0.01  -0.01    -0.00   0.00  -0.00
  19   1     0.01  -0.01   0.00    -0.00  -0.00   0.01    -0.01   0.02  -0.01
  20   1     0.01   0.00   0.00     0.00  -0.00  -0.01    -0.02  -0.02  -0.03
  21   1    -0.11   0.11  -0.04     0.23   0.24  -0.03    -0.39  -0.35   0.04
  22   1    -0.02  -0.03   0.08     0.07   0.02  -0.30    -0.14  -0.01   0.47
  23   1     0.09   0.30   0.13     0.00  -0.06  -0.04    -0.00   0.14   0.10
  24   1     0.12   0.02   0.06    -0.07  -0.01  -0.03     0.16   0.02   0.08
  25   1    -0.05  -0.31  -0.12    -0.00  -0.02  -0.01     0.00   0.03   0.01
  26   1    -0.01  -0.02  -0.07     0.00   0.00   0.02     0.00   0.00  -0.00
                     55                     56                     57
                        a                      a                      a 
 Frequencies --  1480.4588              1491.5830              1569.9862
 Red. masses --     2.2403                 3.3844                 2.0605
 Frc consts  --     0.0000                 0.0000                 0.0000
 IR Inten    --    22.1148               131.3569                43.3063
 Raman Activ --     0.0000                 0.0000                 0.0000
 Depolar     --     0.0000                 0.0000                 0.0000
 Atom AN      X      Y      Z        X      Y      Z        X      Y      Z
   1   6    -0.06   0.24   0.09    -0.02   0.05   0.01    -0.00   0.03   0.01
   2   6    -0.08  -0.00  -0.05    -0.03  -0.00  -0.02    -0.01   0.02   0.00
   3   6    -0.01  -0.00   0.01    -0.00  -0.00   0.00     0.09  -0.04  -0.01
   4   6     0.00  -0.01   0.00    -0.01   0.02  -0.01    -0.01   0.01  -0.01
   5   8     0.00   0.00   0.00     0.00  -0.01  -0.00     0.00  -0.00   0.00
   6   8    -0.00   0.00  -0.00     0.00  -0.00   0.00     0.00  -0.00   0.00
   7   7    -0.00   0.00  -0.03    -0.00   0.00  -0.01     0.05  -0.02   0.26
   8   6     0.07   0.03  -0.02     0.07   0.04  -0.07    -0.00   0.00  -0.00
   9   7    -0.03   0.00  -0.02     0.10  -0.00   0.02     0.00  -0.00   0.00
  10   6     0.08  -0.02   0.00    -0.22   0.04  -0.00    -0.00  -0.01  -0.00
  11   7    -0.07  -0.07  -0.05     0.21   0.20   0.16     0.01   0.01   0.01
  12   7    -0.02   0.03   0.00     0.05  -0.07  -0.01    -0.00   0.01   0.00
  13   1     0.09  -0.29  -0.50     0.02  -0.05  -0.10     0.01  -0.04  -0.06
  14   1     0.10  -0.57   0.15     0.03  -0.11   0.03    -0.00  -0.09   0.02
  15   1     0.19  -0.02   0.01     0.07  -0.01   0.00     0.01  -0.02   0.01
  16   1     0.04   0.04   0.18     0.02   0.01   0.06     0.00   0.01   0.01
  17   1     0.00   0.01  -0.02    -0.00   0.00  -0.00    -0.04   0.01   0.06
  18   1     0.00   0.01  -0.00    -0.00  -0.02   0.01    -0.00   0.00  -0.00
  19   1     0.00  -0.04   0.05     0.00  -0.02   0.02    -0.04   0.43  -0.51
  20   1     0.04   0.04   0.06     0.02   0.01   0.02    -0.34  -0.28  -0.51
  21   1    -0.12  -0.10   0.01    -0.22  -0.15   0.01     0.00  -0.01   0.00
  22   1    -0.06   0.03   0.12    -0.05  -0.05   0.29    -0.00  -0.00   0.00
  23   1     0.00   0.15   0.10    -0.01  -0.43  -0.30     0.00  -0.01  -0.01
  24   1     0.16   0.01   0.09    -0.50  -0.04  -0.28    -0.01   0.00  -0.01
  25   1    -0.00   0.02   0.01     0.01  -0.06  -0.01    -0.00   0.00  -0.00
  26   1     0.00   0.00   0.00     0.00  -0.00  -0.01    -0.00  -0.00  -0.01
                     58                     59                     60
                        a                      a                      a 
 Frequencies --  1672.7798              2882.3284              2954.5093
 Red. masses --    12.1094                 1.7445                 1.7464
 Frc consts  --     0.0000                 0.0000                 0.0000
 IR Inten    --   401.1143                37.4794                26.9876
 Raman Activ --     0.0000                 0.0000                 0.0000
 Depolar     --     0.0000                 0.0000                 0.0000
 Atom AN      X      Y      Z        X      Y      Z        X      Y      Z
   1   6    -0.01   0.00   0.00    -0.00   0.01  -0.01     0.00   0.00   0.00
   2   6     0.00   0.00   0.00     0.00  -0.00  -0.01     0.00  -0.00   0.01
   3   6     0.00  -0.01  -0.00     0.00  -0.00   0.00    -0.15  -0.18  -0.10
   4   6    -0.04   0.06   0.00     0.00   0.00   0.00    -0.01  -0.01  -0.00
   5   8     0.01  -0.01  -0.00     0.00   0.00  -0.00     0.00   0.00   0.00
   6   8     0.01  -0.00  -0.00    -0.00   0.00  -0.00     0.00   0.00   0.00
   7   7     0.00  -0.00   0.00    -0.00   0.00  -0.00    -0.00  -0.00  -0.01
   8   6     0.01  -0.01  -0.02    -0.00   0.08   0.25     0.00   0.00   0.00
   9   7     0.08  -0.09   0.04     0.00  -0.01   0.01     0.00   0.00   0.00
  10   6    -0.21   0.76   0.13    -0.00   0.00   0.00     0.00  -0.00  -0.00
  11   7    -0.05  -0.14  -0.07     0.00   0.00  -0.00    -0.00   0.00   0.00
  12   7     0.15  -0.48  -0.09     0.00  -0.00  -0.00     0.00   0.00   0.00
  13   1     0.00  -0.00  -0.01     0.00  -0.02   0.01     0.00  -0.01   0.01
  14   1     0.00  -0.01   0.00    -0.01   0.01   0.05     0.00  -0.00  -0.01
  15   1     0.00  -0.00   0.00    -0.00   0.00   0.01     0.01  -0.01  -0.07
  16   1     0.00  -0.00   0.00    -0.01   0.00   0.00    -0.03   0.01   0.01
  17   1    -0.01   0.01   0.00    -0.00  -0.00  -0.00     0.57   0.68   0.38
  18   1    -0.00  -0.07   0.04    -0.00   0.00   0.00    -0.00   0.00  -0.00
  19   1     0.00   0.01  -0.01     0.00   0.00  -0.00    -0.01  -0.01  -0.01
  20   1    -0.00  -0.00  -0.01     0.00  -0.00   0.00     0.00  -0.00  -0.00
  21   1    -0.01   0.03  -0.01     0.07  -0.21  -0.94     0.00   0.00   0.00
  22   1     0.01  -0.00   0.00    -0.06  -0.04   0.02    -0.01  -0.01  -0.01
  23   1     0.01   0.12   0.07     0.00  -0.00   0.00     0.00   0.00  -0.00
  24   1     0.01  -0.04   0.04    -0.00  -0.00   0.00     0.00   0.00   0.00
  25   1     0.06  -0.10  -0.02     0.00  -0.00   0.00     0.00  -0.00  -0.00
  26   1    -0.00  -0.01  -0.04    -0.00  -0.00   0.00    -0.00   0.00   0.00
                     61                     62                     63
                        a                      a                      a 
 Frequencies --  2982.3571              2991.1932              2995.6859
 Red. masses --     1.9376                 1.6201                 1.6787
 Frc consts  --     0.0000                 0.0000                 0.0000
 IR Inten    --    27.5182                11.7440                42.8853
 Raman Activ --     0.0000                 0.0000                 0.0000
 Depolar     --     0.0000                 0.0000                 0.0000
 Atom AN      X      Y      Z        X      Y      Z        X      Y      Z
   1   6     0.01  -0.15   0.24     0.03  -0.09  -0.10     0.02  -0.13  -0.02
   2   6     0.01  -0.02  -0.06    -0.04   0.02   0.06    -0.06   0.04   0.12
   3   6    -0.00  -0.00  -0.00     0.00   0.00   0.00    -0.00   0.00   0.00
   4   6    -0.00   0.00   0.00    -0.00  -0.00  -0.00     0.00   0.00   0.00
   5   8     0.00  -0.00  -0.00    -0.00  -0.00  -0.00    -0.00   0.00  -0.00
   6   8    -0.00   0.00  -0.00     0.00   0.00  -0.00    -0.00   0.00   0.00
   7   7    -0.00  -0.00  -0.00     0.00   0.00   0.00     0.00   0.00  -0.00
   8   6     0.03   0.02   0.02     0.14   0.12   0.03    -0.11  -0.11  -0.03
   9   7     0.00   0.00  -0.00     0.00   0.01  -0.00    -0.00  -0.01   0.00
  10   6    -0.00   0.00   0.00     0.00   0.00  -0.00    -0.00  -0.00  -0.00
  11   7     0.00  -0.00  -0.00     0.00  -0.00   0.00    -0.00   0.00  -0.00
  12   7     0.00  -0.00  -0.00    -0.00  -0.00   0.00     0.00   0.00  -0.00
  13   1    -0.10   0.65  -0.40    -0.03   0.22  -0.17    -0.06   0.39  -0.27
  14   1     0.05  -0.13  -0.46    -0.05   0.10   0.53    -0.03   0.06   0.36
  15   1    -0.02   0.05   0.25     0.01  -0.04  -0.20     0.02  -0.07  -0.39
  16   1    -0.00   0.00  -0.01     0.13  -0.05  -0.03     0.20  -0.07  -0.04
  17   1     0.01   0.02   0.01    -0.01  -0.01  -0.01     0.00   0.00   0.00
  18   1     0.00   0.00   0.00    -0.00   0.00   0.00     0.00  -0.00  -0.00
  19   1     0.00   0.00  -0.00    -0.00  -0.00  -0.00    -0.00  -0.00  -0.00
  20   1     0.00  -0.00  -0.00    -0.00   0.00   0.00     0.00  -0.00   0.00
  21   1     0.00  -0.00  -0.03     0.02   0.03   0.08    -0.01  -0.02  -0.05
  22   1    -0.10  -0.10  -0.04    -0.50  -0.47  -0.19     0.43   0.40   0.16
  23   1    -0.00  -0.00   0.00    -0.00  -0.00  -0.00     0.00   0.00   0.00
  24   1    -0.00  -0.00   0.00    -0.00  -0.00   0.00     0.00   0.00  -0.00
  25   1    -0.00   0.00  -0.00    -0.00   0.00  -0.00     0.00   0.00   0.00
  26   1    -0.00   0.00   0.00     0.00  -0.00  -0.00     0.00  -0.00   0.00
                     64                     65                     66
                        a                      a                      a 
 Frequencies --  3003.4115              3008.3599              3220.0065
 Red. masses --     1.7695                 1.6535                 1.8648
 Frc consts  --     0.0000                 0.0000                 0.0000
 IR Inten    --    59.0507                40.0151               202.0737
 Raman Activ --     0.0000                 0.0000                 0.0000
 Depolar     --     0.0000                 0.0000                 0.0000
 Atom AN      X      Y      Z        X      Y      Z        X      Y      Z
   1   6     0.02  -0.05  -0.12     0.01  -0.04  -0.02    -0.00  -0.00  -0.00
   2   6     0.03  -0.04  -0.21     0.22  -0.07  -0.01     0.00  -0.00   0.00
   3   6    -0.01  -0.01  -0.01     0.01   0.00   0.00     0.00   0.00   0.00
   4   6    -0.00  -0.00  -0.00    -0.00   0.00   0.00     0.01  -0.02   0.01
   5   8     0.00  -0.00   0.00    -0.00   0.00  -0.00    -0.01   0.01  -0.00
   6   8    -0.00  -0.00   0.00    -0.00   0.00   0.00     0.22  -0.07  -0.02
   7   7     0.00   0.00   0.00    -0.00   0.00  -0.00    -0.00  -0.00   0.00
   8   6    -0.03  -0.03  -0.02    -0.01  -0.01  -0.00    -0.00  -0.00   0.00
   9   7    -0.00  -0.00   0.00    -0.00  -0.00   0.00     0.01  -0.00  -0.00
  10   6    -0.00  -0.00  -0.00    -0.00  -0.00  -0.00    -0.01   0.01   0.00
  11   7    -0.00   0.00  -0.00     0.00   0.00  -0.00     0.00  -0.00  -0.00
  12   7     0.00   0.00   0.00     0.00  -0.00   0.00     0.00  -0.01   0.00
  13   1    -0.01   0.06  -0.06    -0.02   0.12  -0.09    -0.00   0.00  -0.00
  14   1    -0.05   0.10   0.49    -0.01   0.03   0.15    -0.00   0.00   0.00
  15   1    -0.06   0.14   0.78     0.04  -0.04  -0.16     0.00  -0.00  -0.00
  16   1    -0.03   0.01  -0.02    -0.85   0.30   0.21    -0.00   0.00   0.00
  17   1     0.04   0.05   0.02    -0.02  -0.03  -0.01    -0.00  -0.00  -0.00
  18   1     0.00  -0.00  -0.00     0.00  -0.00  -0.00    -0.90   0.35   0.06
  19   1    -0.00  -0.00  -0.00     0.00  -0.00  -0.00     0.00  -0.00   0.00
  20   1     0.00  -0.00   0.00     0.00  -0.00   0.00     0.00   0.01  -0.00
  21   1    -0.01   0.00   0.02    -0.00   0.00   0.01    -0.00  -0.00   0.00
  22   1     0.12   0.11   0.04     0.02   0.02   0.01     0.00   0.00   0.00
  23   1     0.00   0.00   0.00     0.00  -0.00   0.00    -0.00   0.00  -0.00
  24   1     0.00   0.00  -0.00    -0.00   0.00   0.00    -0.00   0.00   0.00
  25   1    -0.00   0.00  -0.00    -0.00   0.00  -0.00    -0.01  -0.00  -0.00
  26   1    -0.00   0.00   0.00     0.00  -0.00   0.00     0.03  -0.02  -0.00
                     67                     68                     69
                        a                      a                      a 
 Frequencies --  3390.0371              3394.9763              3419.5929
 Red. masses --     1.5828                 1.8639                 2.0029
 Frc consts  --     0.0000                 0.0000                 0.0000
 IR Inten    --     8.6900                24.1656                 1.2416
 Raman Activ --     0.0000                 0.0000                 0.0000
 Depolar     --     0.0000                 0.0000                 0.0000
 Atom AN      X      Y      Z        X      Y      Z        X      Y      Z
   1   6    -0.00  -0.00  -0.00     0.00   0.00  -0.00     0.00  -0.00  -0.00
   2   6    -0.00  -0.00  -0.00     0.00  -0.00  -0.00     0.00   0.00   0.00
   3   6    -0.01  -0.00  -0.01     0.00   0.00  -0.00    -0.00  -0.01   0.00
   4   6    -0.00   0.00   0.00     0.00   0.00   0.00    -0.00  -0.00  -0.00
   5   8    -0.00   0.00   0.00    -0.01   0.00   0.00     0.00  -0.00  -0.00
   6   8     0.00  -0.00   0.00     0.00  -0.00  -0.00    -0.00   0.00  -0.00
   7   7    -0.14  -0.05  -0.15     0.00   0.00   0.00    -0.06  -0.26   0.05
   8   6     0.00   0.00  -0.00    -0.00   0.00   0.00     0.00  -0.00  -0.00
   9   7     0.00   0.00   0.00     0.00   0.00  -0.00     0.00   0.00   0.00
  10   6    -0.00  -0.00  -0.00    -0.01  -0.01  -0.01     0.00  -0.00  -0.00
  11   7    -0.00  -0.00   0.00     0.00  -0.00  -0.00    -0.00   0.00   0.00
  12   7    -0.00   0.00  -0.00    -0.24   0.07  -0.05    -0.00   0.00  -0.00
  13   1     0.00  -0.00   0.00    -0.00   0.00  -0.00     0.00   0.00  -0.00
  14   1     0.00   0.00   0.00     0.00  -0.00  -0.00     0.00   0.00   0.00
  15   1    -0.00   0.00   0.00     0.00  -0.00   0.00    -0.00  -0.00   0.00
  16   1     0.00  -0.00  -0.00    -0.00   0.00   0.00    -0.00   0.00   0.00
  17   1     0.01   0.01   0.00    -0.00  -0.00  -0.00     0.00   0.00  -0.00
  18   1    -0.00   0.00  -0.00    -0.01   0.01  -0.00     0.01  -0.00  -0.00
  19   1     0.56   0.56   0.39    -0.01  -0.01  -0.01     0.26   0.22   0.19
  20   1    -0.01  -0.38   0.16     0.00   0.01  -0.00    -0.04   0.78  -0.39
  21   1    -0.00   0.00   0.00    -0.00  -0.00   0.00    -0.00   0.00  -0.00
  22   1    -0.00  -0.00   0.00    -0.00  -0.00  -0.00    -0.00   0.00   0.00
  23   1     0.00  -0.00   0.00    -0.00   0.00  -0.00    -0.00   0.00   0.00
  24   1    -0.00   0.00  -0.00    -0.01   0.01   0.01     0.00  -0.00  -0.00
  25   1     0.02  -0.00   0.00     0.91  -0.23   0.21     0.00  -0.00   0.00
  26   1     0.00  -0.00   0.00     0.03  -0.02  -0.00    -0.00   0.00   0.00
                     70                     71                     72
                        a                      a                      a 
 Frequencies --  3450.6475              3460.7173              3516.3491
 Red. masses --     1.8591                 1.4646                 2.1532
 Frc consts  --     0.0000                 0.0000                 0.0000
 IR Inten    --    43.9984                 3.0356                 0.9270
 Raman Activ --     0.0000                 0.0000                 0.0000
 Depolar     --     0.0000                 0.0000                 0.0000
 Atom AN      X      Y      Z        X      Y      Z        X      Y      Z
   1   6    -0.00   0.00   0.00     0.00   0.00   0.00     0.00  -0.00   0.00
   2   6    -0.00  -0.00  -0.00     0.00  -0.00   0.00     0.00  -0.00   0.00
   3   6    -0.00  -0.00   0.00    -0.00  -0.00  -0.00     0.00  -0.00  -0.00
   4   6    -0.01   0.01   0.01     0.00  -0.00  -0.00    -0.00   0.00   0.00
   5   8    -0.21   0.10   0.01     0.01  -0.01  -0.00     0.00  -0.00  -0.00
   6   8    -0.01   0.00   0.00     0.00  -0.00  -0.00     0.00  -0.00  -0.00
   7   7     0.00  -0.00   0.00    -0.00  -0.00  -0.00     0.00   0.00   0.00
   8   6     0.00   0.00   0.00     0.00   0.00   0.00     0.00   0.00   0.00
   9   7    -0.00   0.00  -0.00     0.00  -0.00   0.00     0.00  -0.00  -0.00
  10   6     0.00  -0.00  -0.00    -0.00  -0.00  -0.01    -0.01   0.01   0.00
  11   7    -0.01  -0.00  -0.01    -0.10  -0.08  -0.14    -0.22   0.20   0.03
  12   7     0.01  -0.00   0.00     0.00   0.00   0.00    -0.00   0.00  -0.00
  13   1     0.00  -0.00   0.00     0.00  -0.00   0.00    -0.00   0.00  -0.00
  14   1     0.00  -0.00  -0.00     0.00  -0.00  -0.00    -0.00  -0.00  -0.00
  15   1    -0.00   0.00   0.00     0.00  -0.00  -0.00     0.00   0.00   0.00
  16   1     0.00  -0.00  -0.00     0.00   0.00   0.00    -0.00   0.00   0.00
  17   1     0.00   0.00   0.00    -0.00  -0.00  -0.00    -0.00  -0.00  -0.00
  18   1     0.03  -0.01  -0.00    -0.00   0.00   0.00    -0.01   0.00   0.00
  19   1    -0.00  -0.00  -0.00     0.00   0.00   0.00    -0.00  -0.00  -0.00
  20   1    -0.00   0.00  -0.00    -0.00   0.00  -0.00     0.00  -0.00   0.00
  21   1    -0.00   0.00  -0.00    -0.00  -0.00   0.00    -0.00  -0.00   0.00
  22   1    -0.00  -0.00  -0.00    -0.00   0.00   0.00    -0.00  -0.00  -0.00
  23   1     0.05  -0.02   0.02     0.64  -0.24   0.22     0.57  -0.19   0.23
  24   1    -0.02   0.03   0.02    -0.27   0.52   0.30     0.26  -0.55  -0.35
  25   1    -0.03   0.01  -0.01    -0.01   0.00  -0.00     0.02  -0.01   0.00
  26   1     0.86  -0.43  -0.08    -0.06   0.03   0.01    -0.01   0.00   0.00
