      -----------------------------------------------------------      
     |                   =====================                   |     
     |                           x T B                           |     
     |                   =====================                   |     
     |                         S. Grimme                         |     
     |          Mulliken Center for Theoretical Chemistry        |     
     |                    University of Bonn                     |     
      -----------------------------------------------------------      

   * xtb version 6.6.0 (8843059) compiled by 'stahn@majestix' on 2023-02-09

   xtb is free software: you can redistribute it and/or modify it under
   the terms of the GNU Lesser General Public License as published by
   the Free Software Foundation, either version 3 of the License, or
   (at your option) any later version.
   
   xtb is distributed in the hope that it will be useful,
   but WITHOUT ANY WARRANTY; without even the implied warranty of
   MERCHANTABILITY or FITNESS FOR A PARTICULAR PURPOSE.  See the
   GNU Lesser General Public License for more details.
   
   Cite this work as:
   * C. Bannwarth, E. Caldeweyher, S. Ehlert, A. Hansen, P. Pracht,
     J. Seibert, S. Spicher, S. Grimme, WIREs Comput. Mol. Sci., 2020, 11,
     e01493. DOI: 10.1002/wcms.1493
   
   for GFN2-xTB:
   * C. Bannwarth, S. Ehlert and S. Grimme., J. Chem. Theory Comput., 2019,
     15, 1652-1671. DOI: 10.1021/acs.jctc.8b01176
   for GFN1-xTB:
   * S. Grimme, C. Bannwarth, P. Shushkov, J. Chem. Theory Comput., 2017,
     13, 1989-2009. DOI: 10.1021/acs.jctc.7b00118
   for GFN0-xTB:
   * P. Pracht, E. Caldeweyher, S. Ehlert, S. Grimme, ChemRxiv, 2019, preprint.
     DOI: 10.26434/chemrxiv.8326202.v1
   for GFN-FF:
   * S. Spicher and S. Grimme, Angew. Chem. Int. Ed., 2020, 59, 15665-15673.
     DOI: 10.1002/anie.202004239
   
   for ALPB and GBSA implicit solvation:
   * S. Ehlert, M. Stahn, S. Spicher, S. Grimme, J. Chem. Theory Comput.,
     2021, 17, 4250-4261. DOI: 10.1021/acs.jctc.1c00471
   
   for DFT-D4:
   * E. Caldeweyher, C. Bannwarth and S. Grimme, J. Chem. Phys., 2017,
     147, 034112. DOI: 10.1063/1.4993215
   * E. Caldeweyher, S. Ehlert, A. Hansen, H. Neugebauer, S. Spicher,
     C. Bannwarth and S. Grimme, J. Chem. Phys., 2019, 150, 154122.
     DOI: 10.1063/1.5090222
   * E. Caldeweyher, J.-M. Mewes, S. Ehlert and S. Grimme, Phys. Chem. Chem. Phys.
     2020, 22, 8499-8512. DOI: 10.1039/D0CP00502A
   
   for sTDA-xTB:
   * S. Grimme and C. Bannwarth, J. Chem. Phys., 2016, 145, 054103.
     DOI: 10.1063/1.4959605
   
   in the mass-spec context:
   * V. Asgeirsson, C. Bauer and S. Grimme, Chem. Sci., 2017, 8, 4879.
     DOI: 10.1039/c7sc00601b
   * J. Koopman and S. Grimme, ACS Omega 2019, 4, 12, 15120-15133.
     DOI: 10.1021/acsomega.9b02011
   
   for metadynamics refer to:
   * S. Grimme, J. Chem. Theory Comput., 2019, 155, 2847-2862
     DOI: 10.1021/acs.jctc.9b00143
   
   for SPH calculations refer to:
   * S. Spicher and S. Grimme, J. Chem. Theory Comput., 2021, 17, 1701-1714
     DOI: 10.1021/acs.jctc.0c01306
   
   with help from (in alphabetical order)
   P. Atkinson, C. Bannwarth, F. Bohle, G. Brandenburg, E. Caldeweyher
   M. Checinski, S. Dohm, S. Ehlert, S. Ehrlich, I. Gerasimov, C. Hölzer
   A. Katbashev, J. Koopman, C. Lavigne, S. Lehtola, F. März, M. Müller,
   F. Musil, H. Neugebauer, J. Pisarek, C. Plett, P. Pracht, F. Pultar,
   J. Seibert, P. Shushkov, S. Spicher, M. Stahn, M. Steiner, T. Strunk,
   J. Stückrath, T. Rose, and J. Unsleber
   
 * started run on 2025/07/30 at 12:34:44.430     

           -------------------------------------------------
          |                Calculation Setup                |
           -------------------------------------------------

          program call               : xtb --gfn2 in.xyz --ohess vtight
          coordinate file            : in.xyz
          omp threads                :                     8

   ID    Z sym.   atoms
    1    6 C      1-4, 8, 10
    2    8 O      5, 6
    3    7 N      7, 9, 11, 12
    4    1 H      13-26

           -------------------------------------------------
          |                 G F N 2 - x T B                 |
           -------------------------------------------------

        Reference                      10.1021/acs.jctc.8b01176
      * Hamiltonian:
        H0-scaling (s, p, d)           1.850000    2.230000    2.230000
        zeta-weighting                 0.500000
      * Dispersion:
        s8                             2.700000
        a1                             0.520000
        a2                             5.000000
        s9                             5.000000
      * Repulsion:
        kExp                           1.500000    1.000000
        rExp                           1.000000
      * Coulomb:
        alpha                          2.000000
        third order                    shell-resolved
        anisotropic                    true
        a3                             3.000000
        a5                             4.000000
        cn-shift                       1.200000
        cn-exp                         4.000000
        max-rad                        5.000000


          ...................................................
          :                      SETUP                      :
          :.................................................:
          :  # basis functions                  62          :
          :  # atomic orbitals                  62          :
          :  # shells                           38          :
          :  # electrons                        70          :
          :  max. iterations                   250          :
          :  Hamiltonian                  GFN2-xTB          :
          :  restarted?                      false          :
          :  GBSA solvation                  false          :
          :  PC potential                    false          :
          :  electronic temp.          300.0000000     K    :
          :  accuracy                    1.0000000          :
          :  -> integral cutoff          0.2500000E+02      :
          :  -> integral neglect         0.1000000E-07      :
          :  -> SCF convergence          0.1000000E-05 Eh   :
          :  -> wf. convergence          0.1000000E-03 e    :
          :  Broyden damping             0.4000000          :
          ...................................................

 iter      E             dE          RMSdq      gap      omega  full diag
   1    -40.2020047 -0.402020E+02  0.368E+00    4.80       0.0  T
   2    -40.2463120 -0.443073E-01  0.207E+00    5.05       1.0  T
   3    -40.2485961 -0.228415E-02  0.743E-01    4.37       1.0  T
   4    -40.2498319 -0.123584E-02  0.200E-01    4.35       1.0  T
   5    -40.2500549 -0.222951E-03  0.796E-02    4.33       1.0  T
   6    -40.2501138 -0.589195E-04  0.355E-02    4.36       1.0  T
   7    -40.2501150 -0.119566E-05  0.898E-03    4.37       2.2  T
   8    -40.2501157 -0.697537E-06  0.298E-03    4.37       6.6  T
   9    -40.2501157 -0.315767E-07  0.135E-03    4.37      14.5  T
  10    -40.2501157 -0.307840E-08  0.419E-04    4.37      46.8  T
  11    -40.2501157 -0.718110E-09  0.126E-04    4.37     155.7  T

   *** convergence criteria satisfied after 11 iterations ***

         #    Occupation            Energy/Eh            Energy/eV
      -------------------------------------------------------------
         1        2.0000           -0.6989250             -19.0187
       ...           ...                  ...                  ...
        29        2.0000           -0.4311283             -11.7316
        30        2.0000           -0.4288833             -11.6705
        31        2.0000           -0.4242650             -11.5448
        32        2.0000           -0.4057279             -11.0404
        33        2.0000           -0.3910344             -10.6406
        34        2.0000           -0.3829090             -10.4195
        35        2.0000           -0.3619889              -9.8502 (HOMO)
        36                         -0.2015673              -5.4849 (LUMO)
        37                         -0.0173311              -0.4716
        38                          0.0288654               0.7855
        39                          0.0510362               1.3888
        40                          0.0541491               1.4735
       ...                                ...                  ...
        62                          0.5565214              15.1437
      -------------------------------------------------------------
                  HL-Gap            0.1604217 Eh            4.3653 eV
             Fermi-level           -0.2817781 Eh           -7.6676 eV

 SCC (total)                   0 d,  0 h,  0 min,  0.020 sec
 SCC setup                      ...        0 min,  0.000 sec (  1.304%)
 Dispersion                     ...        0 min,  0.000 sec (  1.265%)
 classical contributions        ...        0 min,  0.000 sec (  0.179%)
 integral evaluation            ...        0 min,  0.002 sec (  7.996%)
 iterations                     ...        0 min,  0.013 sec ( 65.847%)
 molecular gradient             ...        0 min,  0.004 sec ( 22.423%)
 printout                       ...        0 min,  0.000 sec (  0.836%)

         :::::::::::::::::::::::::::::::::::::::::::::::::::::
         ::                     SUMMARY                     ::
         :::::::::::::::::::::::::::::::::::::::::::::::::::::
         :: total energy             -39.832502296032 Eh    ::
         :: gradient norm              0.000098234250 Eh/a0 ::
         :: HOMO-LUMO gap              4.365295920870 eV    ::
         ::.................................................::
         :: SCC energy               -40.250115747732 Eh    ::
         :: -> isotropic ES            0.098909236151 Eh    ::
         :: -> anisotropic ES         -0.004820684847 Eh    ::
         :: -> anisotropic XC          0.015861904756 Eh    ::
         :: -> dispersion             -0.023482179874 Eh    ::
         :: repulsion energy           0.417355291734 Eh    ::
         :: add. restraining           0.000000000000 Eh    ::
         :: total charge               0.000000000000 e     ::
         :::::::::::::::::::::::::::::::::::::::::::::::::::::

      ----------------------------------------------------------- 
     |                   =====================                   |
     |                        A N C O P T                        |
     |                   =====================                   |
     |               Approximate Normal Coordinate               |
     |                Rational Function Optimizer                |
      ----------------------------------------------------------- 

          ...................................................
          :                      SETUP                      :
          :.................................................:
          :   optimization level         verytight          :
          :   max. optcycles                   520          :
          :   ANC micro-cycles                  20          :
          :   degrees of freedom                72          :
          :.................................................:
          :   RF solver                   davidson          :
          :   write xtbopt.log                true          :
          :   linear?                        false          :
          :   energy convergence         0.1000000E-06 Eh   :
          :   grad. convergence          0.2000000E-03 Eh/α :
          :   maxmium RF displ.          1.0000000          :
          :   Hlow (freq-cutoff)         0.1000000E-01      :
          :   Hmax (freq-cutoff)         5.0000000          :
          :   S6 in model hess.         20.0000000          :
          ...................................................

generating ANC from model Hessian ...
Using Lindh-Hessian (1995)
 Shifting diagonal of input Hessian by   7.768851203710009E-003
 Lowest  eigenvalues of input Hessian
    0.000000    0.000000    0.000000    0.000000    0.000000    0.000000
    0.010000    0.011310    0.013915    0.016183    0.016449    0.019443
    0.021304    0.024498    0.026982    0.027699    0.030301    0.033649
 Highest eigenvalues
    1.457966    1.512513    1.556634    1.674317    2.025817    2.245081
 

........................................................................
.............................. CYCLE    1 ..............................
........................................................................

 iter      E             dE          RMSdq      gap      omega  full diag
   1    -40.2501157 -0.402501E+02  0.520E-05    4.37       0.0  T
   2    -40.2501157 -0.715517E-11  0.311E-05    4.37     630.3  T
   3    -40.2501157 -0.490274E-12  0.126E-05    4.37    1555.6  T
     SCC iter.                  ...        0 min,  0.003 sec
     gradient                   ...        0 min,  0.004 sec
 * total energy  :   -39.8325023 Eh     change       -0.4669687E-10 Eh
   gradient norm :     0.0000983 Eh/α   predicted     0.0000000E+00 (-100.00%)
   displ. norm   :     0.0001475 α      lambda        0.0000000E+00
   maximum displ.:     0.0000592 α      in ANC's #69, #70, #62, ...

   *** GEOMETRY OPTIMIZATION CONVERGED AFTER 1 ITERATIONS ***

------------------------------------------------------------------------
 total energy gain   :        -0.0000000 Eh       -0.0000 kcal/mol
 total RMSD          :         0.0000000 a0        0.0000 Å
 total power (kW/mol):        -0.0000001 (step)   -0.0000 (real)
------------------------------------------------------------------------

 ANCopt (total)                0 d,  0 h,  0 min,  0.046 sec
 optimizer setup                ...        0 min,  0.000 sec (  0.318%)
 model hessian                  ...        0 min,  0.036 sec ( 77.743%)
 ANC generation                 ...        0 min,  0.001 sec (  1.679%)
 coordinate transformation      ...        0 min,  0.000 sec (  0.029%)
 single point calculation       ...        0 min,  0.009 sec ( 19.560%)
 optimization log               ...        0 min,  0.000 sec (  0.305%)
 hessian update                 ...        0 min,  0.000 sec (  0.007%)
 rational function              ...        0 min,  0.000 sec (  0.102%)

================
 final structure:
================
26
 xtb: 6.6.0 (8843059)
C           -1.03612000000000        2.10477500000000       -0.35411000000000
C           -2.07900700000000        1.07085600000000       -0.75844100000000
C           -1.84991800000000       -0.24052100000000       -0.01070900000000
C           -0.39630700000000       -0.75791600000000       -0.19573700000000
O           -0.22507700000000       -1.16607200000000       -1.51724300000000
O           -0.25051200000000       -1.80998700000000        0.68773600000000
N           -2.21103500000000       -0.09829400000000        1.38603400000000
C            0.35033800000000        1.54039400000000       -0.62540000000000
N            0.56976700000000        0.31165100000000        0.13560200000000
C            1.88264500000000       -0.09057900000000        0.30780600000000
N            2.74953400000000        0.89071100000000        0.73561800000000
N            2.22540900000000       -1.30100900000000        0.07576500000000
H           -1.16625300000000        3.02058900000000       -0.93259700000000
H           -1.14225600000000        2.35121000000000        0.70309400000000
H           -2.00565500000000        0.87769700000000       -1.82902400000000
H           -3.08299200000000        1.42472700000000       -0.52670600000000
H           -2.49009400000000       -1.01838200000000       -0.43842500000000
H            0.67473900000000       -2.12039500000000        0.60007600000000
H           -1.53957000000000        0.50692900000000        1.84831200000000
H           -2.14137500000000       -1.00524600000000        1.83511500000000
H            0.43840400000000        1.31650100000000       -1.69837300000000
H            1.12240800000000        2.26431500000000       -0.36419200000000
H            3.63902200000000        0.56812900000000        1.08208300000000
H            2.36291100000000        1.67629800000000        1.23171800000000
H            3.18836100000000       -1.51463200000000        0.31105900000000
H            0.64437800000000       -1.59148500000000       -1.57331000000000
 
 Bond Distances (Angstroems)
 ---------------------------
C1-C2=1.5232         C1-C8=1.5213         C1-H13=1.0910        C1-H14=1.0907        C2-C1=1.5232         C2-C3=1.5269         
C2-H15=1.0903        C2-H16=1.0895        C3-C2=1.5269         C3-C4=1.5540         C3-N7=1.4497         C3-H17=1.0945        
C4-C3=1.5540         C4-O5=1.3937         C4-O6=1.3815         C4-N9=1.4789         O5-C4=1.3937         O5-H26=0.9696        
O6-C4=1.3815         O6-H18=0.9799        N7-C3=1.4497         N7-H19=1.0153        N7-H20=1.0144        C8-C1=1.5213         
C8-N9=1.4619         C8-H21=1.0996        C8-H22=1.0901        N9-C4=1.4789         N9-C8=1.4619         N9-C10=1.3839        
C10-N9=1.3839        C10-N11=1.3775       C10-N12=1.2792       N11-C10=1.3775       N11-H23=1.0076       N11-H24=1.0063       
N12-C10=1.2792       N12-H25=1.0140       H13-C1=1.0910        H14-C1=1.0907        H15-C2=1.0903        H16-C2=1.0895        
H17-C3=1.0945        H18-O6=0.9799        H19-N7=1.0153        H20-N7=1.0144        H21-C8=1.0996        H22-C8=1.0901        
H23-N11=1.0076       H24-N11=1.0063       H25-N12=1.0140       H26-O5=0.9696        
 C  H  Rav=1.0922 sigma=0.0034  Rmin=1.0895  Rmax=1.0996     7
 C  C  Rav=1.5313 sigma=0.0132  Rmin=1.5213  Rmax=1.5540     4
 N  H  Rav=1.0116 sigma=0.0038  Rmin=1.0063  Rmax=1.0153     5
 N  C  Rav=1.4052 sigma=0.0680  Rmin=1.2792  Rmax=1.4789     6
 O  H  Rav=0.9747 sigma=0.0051  Rmin=0.9696  Rmax=0.9799     2
 O  C  Rav=1.3876 sigma=0.0061  Rmin=1.3815  Rmax=1.3937     2
 
 selected bond angles (degree)
 --------------------
C8-C1-C2=108.96                H13-C1-C2=110.33               H13-C1-C8=109.00               H14-C1-C2=110.12               
H14-C1-C8=110.20               H14-C1-H13=108.22              C3-C2-C1=110.50                H15-C2-C1=109.56               
H15-C2-C3=108.58               H16-C2-C1=110.73               H16-C2-C3=108.24               H16-C2-H15=109.17              
C4-C3-C2=111.59                N7-C3-C2=110.50                N7-C3-C4=112.36                H17-C3-C2=109.35               
H17-C3-C4=105.31               H17-C3-N7=107.49               O5-C4-C3=108.99                O6-C4-C3=106.03                
O6-C4-O5=111.74                N9-C4-C3=110.10                N9-C4-O5=110.12                N9-C4-O6=109.79                
H26-O5-C4=107.07               H18-O6-C4=106.48               H19-N7-C3=109.42               H20-N7-C3=108.77               
H20-N7-H19=106.62              N9-C8-C1=110.84                H21-C8-C1=108.82               H21-C8-N9=108.95               
H22-C8-C1=110.88               H22-C8-N9=109.09               H22-C8-H21=108.20              C8-N9-C4=113.15                
C10-N9-C4=115.94               C10-N9-C8=116.84               N11-C10-N9=115.38              N12-C10-N9=120.44              
N12-C10-N11=124.18             
 
 selected dihedral angles (degree)
 ---------------------------------
C3-C2-C1-C8= 57.05            C3-C2-C1-H13=176.68           C3-C2-C1-H14=296.07           H15-C2-C1-C8=297.46           
H15-C2-C1-H13= 57.08          H15-C2-C1-H14=176.48          H16-C2-C1-C8=176.98           H16-C2-C1-H13=296.61          
H16-C2-C1-H14= 56.00          C4-C3-C2-C1=305.99            C4-C3-C2-H15= 66.17           C4-C3-C2-H16=184.57           
N7-C3-C2-C1= 71.77            N7-C3-C2-H15=191.96           N7-C3-C2-H16=310.35           H17-C3-C2-C1=189.89           
H17-C3-C2-H15=310.08          H17-C3-C2-H16= 68.48          O5-C4-C3-C2=290.93            O5-C4-C3-N7=166.18            
O5-C4-C3-H17= 49.47           O6-C4-C3-C2=170.51            O6-C4-C3-N7= 45.76            O6-C4-C3-H17=289.04           
N9-C4-C3-C2= 51.81            N9-C4-C3-N7=287.06            N9-C4-C3-H17=170.35           H26-O5-C4-C3=187.46           
H26-O5-C4-O6=304.31           H26-O5-C4-N9= 66.60           H18-O6-C4-C3=182.03           H18-O6-C4-O5= 63.41           
H18-O6-C4-N9=300.93           H19-N7-C3-C2=290.28           H19-N7-C3-C4= 55.63           H19-N7-C3-H17=171.03          
H20-N7-C3-C2=174.18           H20-N7-C3-C4=299.53           H20-N7-C3-H17= 54.92          N9-C8-C1-C2=300.24            
N9-C8-C1-H13=179.80           N9-C8-C1-H14= 61.17           H21-C8-C1-C2= 60.03           H21-C8-C1-H13=299.59          
H21-C8-C1-H14=180.96          H22-C8-C1-C2=178.92           H22-C8-C1-H13= 58.48          H22-C8-C1-H14=299.85          
C8-N9-C4-C3=304.85            C8-N9-C4-O5= 65.04            C8-N9-C4-O6=188.48            C10-N9-C4-C3=165.90           
C10-N9-C4-O5=286.10           C10-N9-C4-O6= 49.54           C4-N9-C8-C1= 60.20            C4-N9-C8-H21=300.49           
C4-N9-C8-H22=182.57           C10-N9-C8-C1=198.76           C10-N9-C8-H21= 79.04          C10-N9-C8-H22=321.12          
N11-C10-N9-C4=185.72          N11-C10-N9-C8= 48.31          N12-C10-N9-C4=  5.64          N12-C10-N9-C8=228.24          
           -------------------------------------------------
          |                Final Singlepoint                |
           -------------------------------------------------

          ...................................................
          :                      SETUP                      :
          :.................................................:
          :  # basis functions                  62          :
          :  # atomic orbitals                  62          :
          :  # shells                           38          :
          :  # electrons                        70          :
          :  max. iterations                   250          :
          :  Hamiltonian                  GFN2-xTB          :
          :  restarted?                      false          :
          :  GBSA solvation                  false          :
          :  PC potential                    false          :
          :  electronic temp.          300.0000000     K    :
          :  accuracy                    1.0000000          :
          :  -> integral cutoff          0.2500000E+02      :
          :  -> integral neglect         0.1000000E-07      :
          :  -> SCF convergence          0.1000000E-05 Eh   :
          :  -> wf. convergence          0.1000000E-03 e    :
          :  Broyden damping             0.4000000          :
          ...................................................

 iter      E             dE          RMSdq      gap      omega  full diag
   1    -40.2501157 -0.402501E+02  0.285E-06    4.37       0.0  T
   2    -40.2501157 -0.497380E-13  0.161E-06    4.37   12162.0  T
   3    -40.2501157  0.213163E-13  0.831E-07    4.37   23590.0  T

   *** convergence criteria satisfied after 3 iterations ***

         #    Occupation            Energy/Eh            Energy/eV
      -------------------------------------------------------------
         1        2.0000           -0.6989238             -19.0187
       ...           ...                  ...                  ...
        29        2.0000           -0.4311277             -11.7316
        30        2.0000           -0.4288828             -11.6705
        31        2.0000           -0.4242650             -11.5448
        32        2.0000           -0.4057273             -11.0404
        33        2.0000           -0.3910336             -10.6406
        34        2.0000           -0.3829082             -10.4195
        35        2.0000           -0.3619891              -9.8502 (HOMO)
        36                         -0.2015663              -5.4849 (LUMO)
        37                         -0.0173303              -0.4716
        38                          0.0288659               0.7855
        39                          0.0510370               1.3888
        40                          0.0541498               1.4735
       ...                                ...                  ...
        62                          0.5565225              15.1437
      -------------------------------------------------------------
                  HL-Gap            0.1604228 Eh            4.3653 eV
             Fermi-level           -0.2817777 Eh           -7.6676 eV

 SCC (total)                   0 d,  0 h,  0 min,  0.009 sec
 SCC setup                      ...        0 min,  0.000 sec (  1.138%)
 Dispersion                     ...        0 min,  0.000 sec (  1.258%)
 classical contributions        ...        0 min,  0.000 sec (  0.206%)
 integral evaluation            ...        0 min,  0.001 sec ( 14.147%)
 iterations                     ...        0 min,  0.003 sec ( 35.741%)
 molecular gradient             ...        0 min,  0.004 sec ( 45.891%)
 printout                       ...        0 min,  0.000 sec (  1.360%)

         :::::::::::::::::::::::::::::::::::::::::::::::::::::
         ::                     SUMMARY                     ::
         :::::::::::::::::::::::::::::::::::::::::::::::::::::
         :: total energy             -39.832502296080 Eh    ::
         :: gradient norm              0.000098321914 Eh/a0 ::
         :: HOMO-LUMO gap              4.365327419165 eV    ::
         ::.................................................::
         :: SCC energy               -40.250115747780 Eh    ::
         :: -> isotropic ES            0.098910019074 Eh    ::
         :: -> anisotropic ES         -0.004820452277 Eh    ::
         :: -> anisotropic XC          0.015861988732 Eh    ::
         :: -> dispersion             -0.023482182084 Eh    ::
         :: repulsion energy           0.417355291734 Eh    ::
         :: add. restraining           0.000000000000 Eh    ::
         :: total charge               0.000000000000 e     ::
         :::::::::::::::::::::::::::::::::::::::::::::::::::::

           ------------------------------------------------- 
          |                Numerical Hessian                |
           ------------------------------------------------- 
step length          :   0.00500
SCC accuracy         :   0.30000
Hessian scale factor :   1.00000
frozen atoms in %    :   0.00000    0
RMS gradient         :   0.00010
estimated CPU  time      0.91 min
estimated wall time      0.13 min

writing file <hessian>.

 projected vibrational frequencies (cm⁻¹)
eigval :       -0.00    -0.00     0.00     0.00     0.00     0.00
eigval :       59.17    79.52   115.88   183.44   208.63   227.89
eigval :      274.78   294.92   336.72   364.48   374.43   396.25
eigval :      415.08   446.54   456.10   483.33   520.75   531.94
eigval :      553.19   586.42   641.23   651.63   672.24   724.34
eigval :      768.91   868.13   870.55   910.19   951.54   990.50
eigval :     1011.86  1026.40  1035.66  1056.33  1083.04  1090.72
eigval :     1098.73  1124.90  1134.06  1161.46  1185.62  1199.74
eigval :     1218.77  1224.88  1267.02  1287.85  1322.60  1340.59
eigval :     1344.42  1349.60  1363.98  1389.30  1458.52  1469.27
eigval :     1480.46  1491.58  1569.99  1672.78  2882.33  2954.51
eigval :     2982.36  2991.19  2995.69  3003.41  3008.36  3220.01
eigval :     3390.04  3394.98  3419.59  3450.65  3460.72  3516.35
           -------------------------------------------------
          |                Property Printout                |
           -------------------------------------------------

    * Orbital Energies and Occupations

         #    Occupation            Energy/Eh            Energy/eV
      -------------------------------------------------------------
         1        2.0000           -0.6989238             -19.0187
       ...           ...                  ...                  ...
        23        2.0000           -0.4892774             -13.3139
        24        2.0000           -0.4794453             -13.0464
        25        2.0000           -0.4721746             -12.8485
        26        2.0000           -0.4698814             -12.7861
        27        2.0000           -0.4445943             -12.0980
        28        2.0000           -0.4369686             -11.8905
        29        2.0000           -0.4311277             -11.7316
        30        2.0000           -0.4288828             -11.6705
        31        2.0000           -0.4242650             -11.5448
        32        2.0000           -0.4057273             -11.0404
        33        2.0000           -0.3910336             -10.6406
        34        2.0000           -0.3829082             -10.4195
        35        2.0000           -0.3619891              -9.8502 (HOMO)
        36                         -0.2015662              -5.4849 (LUMO)
        37                         -0.0173303              -0.4716
        38                          0.0288659               0.7855
        39                          0.0510370               1.3888
        40                          0.0541498               1.4735
        41                          0.0645003               1.7551
        42                          0.0810379               2.2052
        43                          0.0988127               2.6888
        44                          0.1121273               3.0511
        45                          0.1225713               3.3353
        46                          0.1259042               3.4260
       ...                                ...                  ...
        62                          0.5565225              15.1437
      -------------------------------------------------------------
                  HL-Gap            0.1604228 Eh            4.3653 eV
             Fermi-level           -0.2817777 Eh           -7.6676 eV

     #   Z          covCN         q      C6AA      α(0)
     1   6 C        3.806    -0.064    21.733     6.637
     2   6 C        3.810    -0.072    21.870     6.657
     3   6 C        3.785     0.044    19.847     6.346
     4   6 C        3.604     0.327    16.191     5.817
     5   8 O        1.657    -0.470    22.246     6.367
     6   8 O        1.657    -0.470    22.258     6.369
     7   7 N        2.632    -0.341    28.791     7.969
     8   6 C        3.755     0.013    20.416     6.443
     9   7 N        2.743    -0.202    25.383     7.483
    10   6 C        2.753     0.243    22.932     7.842
    11   7 N        2.642    -0.305    27.855     7.839
    12   7 N        1.785    -0.449    32.751     8.476
    13   1 H        0.924     0.043     2.416     2.431
    14   1 H        0.924     0.048     2.349     2.397
    15   1 H        0.924     0.051     2.305     2.374
    16   1 H        0.925     0.057     2.232     2.336
    17   1 H        0.924     0.055     2.259     2.350
    18   1 H        0.803     0.323     0.656     1.272
    19   1 H        0.860     0.143     1.453     1.888
    20   1 H        0.860     0.158     1.346     1.818
    21   1 H        0.923     0.040     2.446     2.446
    22   1 H        0.925     0.042     2.428     2.437
    23   1 H        0.860     0.172     1.262     1.760
    24   1 H        0.860     0.173     1.256     1.756
    25   1 H        0.860     0.127     1.571     1.963
    26   1 H        0.804     0.316     0.676     1.291

 Mol. C6AA /au·bohr⁶  :       5780.731431
 Mol. C8AA /au·bohr⁸  :     123561.569221
 Mol. α(0) /au        :        112.760916


Wiberg/Mayer (AO) data.
largest (>0.10) Wiberg bond orders for each atom

 ---------------------------------------------------------------------------
     #   Z sym  total        # sym  WBO       # sym  WBO       # sym  WBO
 ---------------------------------------------------------------------------
     1   6 C    3.996 --     2 C    1.009     8 C    1.007    13 H    0.974
                            14 H    0.973
     2   6 C    3.995 --     1 C    1.009     3 C    0.995    15 H    0.975
                            16 H    0.974
     3   6 C    3.985 --     7 N    1.030     2 C    0.995    17 H    0.962
                             4 C    0.932
     4   6 C    3.921 --     6 O    1.013     5 O    0.984     3 C    0.932
                             9 N    0.922
     5   8 O    1.975 --     4 C    0.984    26 H    0.870
     6   8 O    1.977 --     4 C    1.013    18 H    0.823
     7   7 N    3.013 --     3 C    1.030    19 H    0.961    20 H    0.958
     8   6 C    3.974 --     1 C    1.007     9 N    0.972    22 H    0.969
                            21 H    0.966
     9   7 N    3.304 --    10 C    1.129     8 C    0.972     4 C    0.922
    10   6 C    3.963 --    12 N    1.639    11 N    1.149     9 N    1.129
    11   7 N    3.254 --    10 C    1.149    23 H    0.950    24 H    0.945
                            12 N    0.144
    12   7 N    2.963 --    10 C    1.639    25 H    0.952    11 N    0.144
    13   1 H    0.998 --     1 C    0.974
    14   1 H    0.998 --     1 C    0.973
    15   1 H    0.997 --     2 C    0.975
    16   1 H    0.997 --     2 C    0.974
    17   1 H    0.997 --     3 C    0.962
    18   1 H    0.896 --     6 O    0.823
    19   1 H    0.980 --     7 N    0.961
    20   1 H    0.975 --     7 N    0.958
    21   1 H    0.998 --     8 C    0.966
    22   1 H    0.998 --     8 C    0.969
    23   1 H    0.970 --    11 N    0.950
    24   1 H    0.970 --    11 N    0.945
    25   1 H    0.983 --    12 N    0.952
    26   1 H    0.900 --     5 O    0.870
 ---------------------------------------------------------------------------

Topologies differ in total number of bonds
Writing topology from bond orders to xtbtopo.mol

molecular dipole:
                 x           y           z       tot (Debye)
 q only:        0.637       1.108       0.305
   full:        1.737       1.166       0.529       5.484
molecular quadrupole (traceless):
                xx          xy          yy          xz          yz          zz
 q only:        2.330       0.053       0.026       3.618       0.701      -2.356
  q+dip:        2.941       0.284      -0.875       7.317       1.543      -2.066
   full:        2.728       0.101      -0.970       7.245       0.954      -1.758

           -------------------------------------------------
          |                Geometry Summary                 |
           -------------------------------------------------

      molecular mass/u    :      174.2012086
   center of mass at/Å    :        0.0000044      -0.0000041       0.0000025
  moments of inertia/u·Å² :        0.3595690E+03   0.5823663E+03   0.7197091E+03
rotational constants/cm⁻¹ :        0.4688288E-01   0.2894678E-01   0.2342284E-01

 * 24 selected distances

     #   Z          #   Z                                           value/Å
     1   6 C        2   6 C                                       1.5231828
     2   6 C        3   6 C                                       1.5268579 (max)
     4   6 C        5   8 O                                       1.3936605
     4   6 C        6   8 O                                       1.3815334
     3   6 C        7   7 N                                       1.4496639
     1   6 C        8   6 C                                       1.5213121
     4   6 C        9   7 N                                       1.4788707
     8   6 C        9   7 N                                       1.4618765
     9   7 N       10   6 C                                       1.3838686
    10   6 C       11   7 N                                       1.3774796
    10   6 C       12   7 N                                       1.2792464
     1   6 C       13   1 H                                       1.0910075
     1   6 C       14   1 H                                       1.0907225
     2   6 C       15   1 H                                       1.0903390
     2   6 C       16   1 H                                       1.0894549
     3   6 C       17   1 H                                       1.0944561
     6   8 O       18   1 H                                       0.9798607
     7   7 N       19   1 H                                       1.0153134
     7   7 N       20   1 H                                       1.0144399
     8   6 C       21   1 H                                       1.0996158
     8   6 C       22   1 H                                       1.0901301
    11   7 N       23   1 H                                       1.0076141
    11   7 N       24   1 H                                       1.0063497
     5   8 O       26   1 H                                       0.9695731 (min)

 * 6 distinct bonds (by element types)

   Z      Z             #   av. dist./Å        max./Å        min./Å
   1 H    6 C           7     1.0922466     1.0996158     1.0894549
   6 C    6 C           3     1.5237842     1.5268579     1.5213121
   1 H    7 N           4     1.0109293     1.0153134     1.0063497
   6 C    7 N           6     1.4051676     1.4788707     1.2792464
   1 H    8 O           2     0.9747169     0.9798607     0.9695731
   6 C    8 O           2     1.3875969     1.3936605     1.3815334

           -------------------------------------------------
          |               Frequency Printout                |
           -------------------------------------------------
 projected vibrational frequencies (cm⁻¹)
eigval :       -0.00    -0.00     0.00     0.00     0.00     0.00
eigval :       59.17    79.52   115.88   183.44   208.63   227.89
eigval :      274.78   294.92   336.72   364.48   374.43   396.25
eigval :      415.08   446.54   456.10   483.33   520.75   531.94
eigval :      553.19   586.42   641.23   651.63   672.24   724.34
eigval :      768.91   868.13   870.55   910.19   951.54   990.50
eigval :     1011.86  1026.40  1035.66  1056.33  1083.04  1090.72
eigval :     1098.73  1124.90  1134.06  1161.46  1185.62  1199.74
eigval :     1218.77  1224.88  1267.02  1287.85  1322.60  1340.59
eigval :     1344.42  1349.60  1363.98  1389.30  1458.52  1469.27
eigval :     1480.46  1491.58  1569.99  1672.78  2882.33  2954.51
eigval :     2982.36  2991.19  2995.69  3003.41  3008.36  3220.01
eigval :     3390.04  3394.98  3419.59  3450.65  3460.72  3516.35
 reduced masses (amu)
   1: 12.51   2: 12.51   3: 11.92   4: 11.55   5: 11.21   6: 13.15   7: 12.05   8: 11.68
   9: 10.90  10: 10.98  11: 11.83  12: 11.09  13:  2.62  14:  8.97  15:  9.07  16: 12.32
  17: 10.68  18: 11.01  19:  3.70  20:  4.42  21:  7.50  22:  9.64  23:  4.68  24: 10.06
  25: 11.39  26:  9.24  27:  8.47  28:  6.73  29:  9.47  30: 10.73  31:  4.03  32:  8.27
  33:  5.45  34:  7.69  35:  8.20  36:  6.17  37:  6.47  38:  7.29  39:  9.21  40:  9.14
  41:  6.97  42:  6.22  43:  9.32  44:  7.49  45:  4.82  46:  6.43  47:  6.97  48:  5.89
  49:  6.14  50:  6.50  51:  3.86  52:  4.66  53:  4.04  54:  5.00  55:  4.85  56:  5.38
  57:  5.82  58:  9.20  59:  2.08  60:  2.25  61:  2.24  62:  3.38  63:  2.06  64: 12.11
  65:  1.74  66:  1.75  67:  1.94  68:  1.62  69:  1.68  70:  1.77  71:  1.65  72:  1.86
  73:  1.58  74:  1.86  75:  2.00  76:  1.86  77:  1.46  78:  2.15
 IR intensities (km·mol⁻¹)
   1:  1.60   2:  0.78   3:  0.30   4:  0.37   5:  1.11   6:  0.31   7:  0.89   8:  2.80
   9:  1.47  10:  6.26  11:  2.64  12:  5.26  13: 38.20  14:  3.55  15:  9.63  16:  4.28
  17:  3.77  18: 33.92  19: 22.16  20: 28.75  21: 30.84  22: 51.43  23:226.27  24:  4.58
  25:  9.92  26: 47.37  27: 88.89  28:119.61  29: 80.11  30: 61.61  31: 67.94  32:  6.35
  33:  8.92  34: 15.65  35: 43.30  36:144.76  37: 14.34  38: 35.31  39:167.67  40: 19.23
  41: 46.39  42: 18.45  43: 32.29  44: 48.42  45: 67.90  46: 33.03  47: 97.62  48:246.59
  49: 78.39  50: 17.31  51: 38.89  52: 50.45  53:  2.50  54: 22.66  55:  3.12  56:  5.90
  57: 49.60  58:326.74  59:  1.15  60: 18.23  61: 22.11  62:131.36  63: 43.31  64:401.11
  65: 37.48  66: 26.99  67: 27.52  68: 11.74  69: 42.89  70: 59.05  71: 40.02  72:202.07
  73:  8.69  74: 24.17  75:  1.24  76: 44.00  77:  3.04  78:  0.93
 Raman intensities (amu)
   1:  0.00   2:  0.00   3:  0.00   4:  0.00   5:  0.00   6:  0.00   7:  0.00   8:  0.00
   9:  0.00  10:  0.00  11:  0.00  12:  0.00  13:  0.00  14:  0.00  15:  0.00  16:  0.00
  17:  0.00  18:  0.00  19:  0.00  20:  0.00  21:  0.00  22:  0.00  23:  0.00  24:  0.00
  25:  0.00  26:  0.00  27:  0.00  28:  0.00  29:  0.00  30:  0.00  31:  0.00  32:  0.00
  33:  0.00  34:  0.00  35:  0.00  36:  0.00  37:  0.00  38:  0.00  39:  0.00  40:  0.00
  41:  0.00  42:  0.00  43:  0.00  44:  0.00  45:  0.00  46:  0.00  47:  0.00  48:  0.00
  49:  0.00  50:  0.00  51:  0.00  52:  0.00  53:  0.00  54:  0.00  55:  0.00  56:  0.00
  57:  0.00  58:  0.00  59:  0.00  60:  0.00  61:  0.00  62:  0.00  63:  0.00  64:  0.00
  65:  0.00  66:  0.00  67:  0.00  68:  0.00  69:  0.00  70:  0.00  71:  0.00  72:  0.00
  73:  0.00  74:  0.00  75:  0.00  76:  0.00  77:  0.00  78:  0.00
 output can be read by thermo (or use thermo option).
 writing <g98.out> molden fake output.
 recommended (thermochemical) frequency scaling factor: 1.0
           -------------------------------------------------
          |             Thermodynamic Functions             |
           -------------------------------------------------

Molecule has no symmetry elements
It seems to be the C1 point group
c1  symmetry found (for desy threshold:  0.10E+00) used in thermo

          ...................................................
          :                      SETUP                      :
          :.................................................:
          :  # frequencies                          72      :
          :  # imaginary freq.                       0      :
          :  linear?                             false      :
          :  only rotor calc.                    false      :
          :  symmetry                               c1      :
          :  rotational number                       1      :
          :  scaling factor                  1.0000000      :
          :  rotor cutoff                   50.0000000 cm⁻¹ :
          :  imag. cutoff                  -20.0000000 cm⁻¹ :
          :.................................................:

    mode    ω/cm⁻¹     T·S(HO)/kcal·mol⁻¹    T·S(FR)/kcal·mol⁻¹   T·S(vib)
   ------------------------------------------------------------------------
       1     59.17    -1.33706 ( 66.24%)    -1.00649 ( 33.76%)    -1.22545
       2     79.52    -1.16356 ( 86.48%)    -0.91897 ( 13.52%)    -1.13050
       3    115.88    -0.94453 ( 96.65%)    -0.80748 (  3.35%)    -0.93994
       4    183.44    -0.68370 ( 99.45%)    -0.67143 (  0.55%)    -0.68363
       5    208.63    -0.61289 ( 99.67%)    -0.63332 (  0.33%)    -0.61296
       6    227.89    -0.56515 ( 99.77%)    -0.60716 (  0.23%)    -0.56525
       7    274.78    -0.46689 ( 99.89%)    -0.55174 (  0.11%)    -0.46698
       8    294.92    -0.43099 ( 99.92%)    -0.53078 (  0.08%)    -0.43107
   ------------------------------------------------------------------------

   temp. (K)  partition function   enthalpy   heat capacity  entropy
                                   cal/mol     cal/K/mol   cal/K/mol   J/K/mol
 298.15  VIB  0.137E+04             5840.665     42.340     33.447
         ROT  0.938E+06              888.752      2.981     30.308
         INT  0.129E+10             6729.417     45.321     63.755
         TR   0.222E+28             1481.254      4.968     41.354
         TOT                        8210.6708    50.2888   105.1090   439.7762

       T/K    H(0)-H(T)+PV         H(T)/Eh          T*S/Eh         G(T)/Eh
   ------------------------------------------------------------------------
    298.15    0.130845E-01    0.229713E+00    0.499407E-01    0.179773E+00
   ------------------------------------------------------------------------

         :::::::::::::::::::::::::::::::::::::::::::::::::::::
         ::                  THERMODYNAMIC                  ::
         :::::::::::::::::::::::::::::::::::::::::::::::::::::
         :: total free energy         -39.652729673922 Eh   ::
         ::.................................................::
         :: total energy              -39.832502296080 Eh   ::
         :: zero point energy           0.216628776261 Eh   ::
         :: G(RRHO) w/o ZPVE           -0.036856154104 Eh   ::
         :: G(RRHO) contrib.            0.179772622158 Eh   ::
         :::::::::::::::::::::::::::::::::::::::::::::::::::::

optimized geometry written to: xtbopt.xyz


           -------------------------------------------------
          | TOTAL ENERGY              -39.832502296080 Eh   |
          | TOTAL ENTHALPY            -39.602788983058 Eh   |
          | TOTAL FREE ENERGY         -39.652729673922 Eh   |
          | GRADIENT NORM               0.000098325243 Eh/α |
          | HOMO-LUMO GAP               4.365327714912 eV   |
           -------------------------------------------------

------------------------------------------------------------------------
 * finished run on 2025/07/30 at 12:34:45.676     
------------------------------------------------------------------------
 total:
 * wall-time:     0 d,  0 h,  0 min,  1.245 sec
 *  cpu-time:     0 d,  0 h,  0 min,  8.850 sec
 * ratio c/w:     7.111 speedup
 SCF:
 * wall-time:     0 d,  0 h,  0 min,  0.020 sec
 *  cpu-time:     0 d,  0 h,  0 min,  0.158 sec
 * ratio c/w:     7.967 speedup
 ANC optimizer:
 * wall-time:     0 d,  0 h,  0 min,  0.056 sec
 *  cpu-time:     0 d,  0 h,  0 min,  0.449 sec
 * ratio c/w:     7.963 speedup
 analytical hessian:
 * wall-time:     0 d,  0 h,  0 min,  1.147 sec
 *  cpu-time:     0 d,  0 h,  0 min,  8.093 sec
 * ratio c/w:     7.057 speedup

