26
 energy: -39.832502296079 gnorm: 0.000098320000 xtb: 6.6.0 (8843059)
C           -1.03612000000000        2.10477500000000       -0.35411000000000
C           -2.07900700000000        1.07085600000000       -0.75844100000000
C           -1.84991800000000       -0.24052100000000       -0.01070900000000
C           -0.39630700000000       -0.75791600000000       -0.19573700000000
O           -0.22507700000000       -1.16607200000000       -1.51724300000000
O           -0.25051200000000       -1.80998700000000        0.68773600000000
N           -2.21103500000000       -0.09829400000000        1.38603400000000
C            0.35033800000000        1.54039400000000       -0.62540000000000
N            0.56976700000000        0.31165100000000        0.13560200000000
C            1.88264500000000       -0.09057900000000        0.30780600000000
N            2.74953400000000        0.89071100000000        0.73561800000000
N            2.22540900000000       -1.30100900000000        0.07576500000000
H           -1.16625300000000        3.02058900000000       -0.93259700000000
H           -1.14225600000000        2.35121000000000        0.70309400000000
H           -2.00565500000000        0.87769700000000       -1.82902400000000
H           -3.08299200000000        1.42472700000000       -0.52670600000000
H           -2.49009400000000       -1.01838200000000       -0.43842500000000
H            0.67473900000000       -2.12039500000000        0.60007600000000
H           -1.53957000000000        0.50692900000000        1.84831200000000
H           -2.14137500000000       -1.00524600000000        1.83511500000000
H            0.43840400000000        1.31650100000000       -1.69837300000000
H            1.12240800000000        2.26431500000000       -0.36419200000000
H            3.63902200000000        0.56812900000000        1.08208300000000
H            2.36291100000000        1.67629800000000        1.23171800000000
H            3.18836100000000       -1.51463200000000        0.31105900000000
H            0.64437800000000       -1.59148500000000       -1.57331000000000
