 Entering Gaussian System
 *********************************************
 Gaussian 98:
 frequency output generated by the xtb code
 *********************************************
                         Standard orientation:
 --------------------------------------------------------------------
  Center     Atomic     Atomic              Coordinates (Angstroms)
  Number     Number      Type              X           Y           Z
 --------------------------------------------------------------------
    1          6             0       -0.894262    2.270541   -0.218893
    2          6             0       -2.037204    1.313515    0.088389
    3          6             0       -1.717429   -0.050900   -0.509871
    4          6             0       -0.348573   -0.593933   -0.030418
    5          8             0       -0.098488   -1.684548   -0.859115
    6          8             0       -0.439877   -0.999039    1.317134
    7          7             0       -2.700882   -1.036807   -0.077939
    8          6             0        0.385583    1.710202    0.382653
    9          7             0        0.692514    0.398514   -0.171947
   10          6             0        2.033063   -0.011406   -0.060433
   11          7             0        2.236618   -1.288660    0.434340
   12          7             0        3.039092    0.649437   -0.448016
   13          1             0       -0.777198    2.372150   -1.299216
   14          1             0       -1.092026    3.255261    0.205897
   15          1             0       -2.977732    1.680469   -0.326620
   16          1             0       -2.156443    1.207095    1.168555
   17          1             0       -1.641626    0.037421   -1.605492
   18          1             0       -1.349894   -1.312729    1.443968
   19          1             0       -3.631241   -0.750852   -0.362198
   20          1             0       -2.494064   -1.924374   -0.526447
   21          1             0        1.230345    2.369084    0.174691
   22          1             0        0.268969    1.633928    1.474654
   23          1             0        3.217795   -1.479690    0.575917
   24          1             0        1.642810   -1.530926    1.218071
   25          1             0        2.826698    1.526476   -0.907915
   26          1             0        0.805088   -2.001138   -0.687893
 --------------------------------------------------------------------
     1 basis functions        1 primitive gaussians
     1 alpha electrons        1 beta electrons
 
 Harmonic frequencies (cm**-1), IR intensities (km*mol⁻¹),
 Raman scattering activities (A**4/amu), Raman depolarization ratios,
 reduced masses (AMU), force constants (mDyne/A) and normal coordinates:
                      1                      2                      3
                        a                      a                      a 
 Frequencies --    74.5131               105.2461               126.6859
 Red. masses --    11.6507                10.2966                12.0199
 Frc consts  --     0.0000                 0.0000                 0.0000
 IR Inten    --     4.7648                 1.8808                 7.9243
 Raman Activ --     0.0000                 0.0000                 0.0000
 Depolar     --     0.0000                 0.0000                 0.0000
 Atom AN      X      Y      Z        X      Y      Z        X      Y      Z
   1   6    -0.03  -0.02  -0.26     0.13  -0.01  -0.09    -0.11  -0.01   0.10
   2   6    -0.01   0.04  -0.04    -0.02   0.09  -0.34    -0.01  -0.09   0.21
   3   6    -0.07  -0.03   0.10     0.04  -0.03  -0.04     0.03   0.03  -0.03
   4   6     0.01   0.00  -0.06    -0.02  -0.05   0.14    -0.01   0.04   0.05
   5   8    -0.06   0.10  -0.21    -0.02  -0.09   0.21    -0.12  -0.16   0.31
   6   8     0.15  -0.12  -0.10    -0.10  -0.01   0.16    -0.01   0.39   0.17
   7   7     0.01   0.01   0.39    -0.06   0.11   0.02     0.03  -0.11  -0.35
   8   6    -0.02   0.07  -0.20    -0.09  -0.11   0.28     0.05   0.05  -0.18
   9   7     0.02   0.01  -0.04    -0.01  -0.06   0.23     0.02  -0.00  -0.12
  10   6    -0.00   0.00   0.11     0.02   0.03  -0.07     0.01  -0.02  -0.06
  11   7    -0.07  -0.16  -0.24     0.19  -0.10  -0.44    -0.04  -0.16  -0.35
  12   7     0.10   0.11   0.56    -0.08   0.22  -0.02     0.09   0.05   0.27
  13   1    -0.02  -0.06  -0.08     0.13  -0.02  -0.02    -0.09   0.03   0.02
  14   1     0.00   0.02  -0.12     0.03   0.01  -0.06    -0.02  -0.02   0.06
  15   1    -0.01  -0.00  -0.00     0.04   0.03  -0.20    -0.03  -0.03   0.12
  16   1     0.02   0.05  -0.00    -0.11   0.07  -0.11     0.06  -0.07   0.06
  17   1    -0.07  -0.05   0.02     0.05  -0.06  -0.01     0.04   0.07  -0.00
  18   1     0.03  -0.01  -0.00    -0.03   0.02   0.04     0.02   0.05   0.05
  19   1    -0.02   0.01   0.17    -0.00   0.03  -0.03     0.02  -0.07  -0.18
  20   1    -0.04  -0.00   0.10    -0.02   0.01   0.05     0.09  -0.02  -0.08
  21   1    -0.01   0.02  -0.08     0.00  -0.04   0.19    -0.01   0.02  -0.13
  22   1    -0.00   0.06  -0.06    -0.13  -0.07   0.07     0.09   0.04  -0.04
  23   1    -0.02  -0.04  -0.05     0.07  -0.02  -0.20    -0.01  -0.05  -0.12
  24   1    -0.03  -0.09  -0.09     0.12  -0.06  -0.07     0.03  -0.05  -0.07
  25   1     0.07   0.07   0.20    -0.06   0.09   0.07     0.06   0.05   0.12
  26   1    -0.01   0.03  -0.09     0.00  -0.01   0.04    -0.01  -0.01   0.04
                      4                      5                      6
                        a                      a                      a 
 Frequencies --   169.4905               204.8731               270.4522
 Red. masses --    10.8765                11.8274                10.9708
 Frc consts  --     0.0000                 0.0000                 0.0000
 IR Inten    --     2.7005                 0.5705                11.9841
 Raman Activ --     0.0000                 0.0000                 0.0000
 Depolar     --     0.0000                 0.0000                 0.0000
 Atom AN      X      Y      Z        X      Y      Z        X      Y      Z
   1   6    -0.04  -0.00  -0.25    -0.11   0.03   0.01    -0.00   0.05  -0.10
   2   6     0.07   0.01   0.18    -0.14  -0.01  -0.15    -0.07   0.15  -0.04
   3   6     0.04   0.04   0.10     0.03  -0.02  -0.01     0.05   0.08   0.16
   4   6    -0.02  -0.03   0.19     0.06   0.16   0.05     0.02  -0.02   0.11
   5   8     0.10   0.16  -0.01     0.15   0.28  -0.04    -0.28  -0.00  -0.01
   6   8    -0.17  -0.37   0.10     0.05   0.16   0.05     0.60  -0.23   0.13
   7   7    -0.06   0.01  -0.23     0.29  -0.25   0.07    -0.06   0.05  -0.23
   8   6     0.05   0.24  -0.20    -0.09   0.16   0.15    -0.10  -0.04   0.02
   9   7    -0.01  -0.01   0.44     0.03   0.20   0.19    -0.05  -0.00  -0.08
  10   6    -0.01   0.01   0.06    -0.05  -0.07   0.01    -0.05  -0.00   0.02
  11   7     0.08  -0.05  -0.08    -0.32  -0.20  -0.14    -0.10   0.04   0.08
  12   7    -0.07  -0.03  -0.15     0.08  -0.38  -0.15    -0.05  -0.00   0.01
  13   1    -0.05  -0.10  -0.09     0.01   0.01   0.01     0.02  -0.02  -0.03
  14   1    -0.01   0.04  -0.16    -0.07   0.01  -0.01     0.02   0.03  -0.06
  15   1    -0.02  -0.02   0.13    -0.02  -0.01  -0.11    -0.00   0.01  -0.07
  16   1     0.12   0.02   0.06    -0.10   0.02  -0.05    -0.07   0.10  -0.01
  17   1     0.06   0.05   0.04     0.01  -0.03  -0.00     0.09   0.04   0.05
  18   1    -0.04  -0.11  -0.02     0.01   0.03   0.01     0.19  -0.11   0.13
  19   1     0.00   0.02  -0.10     0.06  -0.16  -0.01     0.04  -0.09  -0.34
  20   1    -0.00   0.02  -0.09     0.17  -0.06   0.06     0.16  -0.02   0.08
  21   1     0.01   0.04  -0.18    -0.03   0.06   0.06    -0.01  -0.02   0.06
  22   1     0.06   0.23  -0.04    -0.05   0.05   0.04    -0.07  -0.05  -0.00
  23   1     0.03  -0.02  -0.09    -0.09  -0.13  -0.10    -0.03   0.01   0.06
  24   1     0.07  -0.03   0.01    -0.05  -0.02  -0.00    -0.06   0.00  -0.01
  25   1    -0.03   0.00  -0.02     0.07  -0.07   0.00    -0.02  -0.01  -0.01
  26   1     0.02   0.03   0.02     0.04   0.07   0.00    -0.06  -0.01  -0.08
                      7                      8                      9
                        a                      a                      a 
 Frequencies --   290.3797               306.5608               324.2297
 Red. masses --     9.1972                 6.2591                10.0468
 Frc consts  --     0.0000                 0.0000                 0.0000
 IR Inten    --     6.8012                 1.8147                 3.3632
 Raman Activ --     0.0000                 0.0000                 0.0000
 Depolar     --     0.0000                 0.0000                 0.0000
 Atom AN      X      Y      Z        X      Y      Z        X      Y      Z
   1   6    -0.17   0.18   0.21    -0.02   0.19   0.22    -0.20  -0.04   0.08
   2   6    -0.04  -0.08  -0.19    -0.05   0.08  -0.16    -0.34   0.06  -0.11
   3   6     0.10  -0.11  -0.06     0.04   0.03  -0.03    -0.09   0.07   0.04
   4   6     0.08  -0.10   0.05    -0.04  -0.04   0.03    -0.02   0.10   0.06
   5   8     0.32  -0.12   0.13    -0.11  -0.06  -0.03    -0.31   0.14  -0.06
   6   8     0.24  -0.17   0.06    -0.23  -0.24  -0.04     0.05   0.06   0.03
   7   7    -0.23   0.26  -0.00     0.16  -0.00   0.17     0.00  -0.08  -0.07
   8   6    -0.01   0.14  -0.14     0.13   0.06  -0.21    -0.05  -0.02  -0.10
   9   7    -0.06   0.06  -0.01    -0.02  -0.09   0.02     0.15  -0.07   0.08
  10   6    -0.07   0.02  -0.02     0.01  -0.01   0.00     0.21  -0.07   0.08
  11   7    -0.17  -0.04  -0.08     0.11   0.02   0.02     0.44  -0.04   0.08
  12   7     0.02  -0.11   0.03    -0.03   0.07   0.03     0.23  -0.14  -0.03
  13   1    -0.08   0.22   0.07    -0.05   0.23   0.08    -0.08   0.05   0.03
  14   1    -0.08  -0.02   0.21     0.00  -0.01   0.23    -0.03  -0.03   0.07
  15   1     0.01  -0.05  -0.13     0.02   0.03  -0.13    -0.05   0.02  -0.14
  16   1    -0.10  -0.04  -0.07    -0.11   0.02  -0.06    -0.20   0.04  -0.04
  17   1     0.07  -0.07  -0.02     0.01  -0.03  -0.01    -0.00   0.02   0.01
  18   1     0.08  -0.11   0.02    -0.13   0.15   0.01     0.04  -0.09  -0.02
  19   1    -0.04   0.24   0.11     0.07  -0.23  -0.26    -0.04   0.09   0.20
  20   1    -0.25   0.06  -0.07     0.28  -0.09   0.32    -0.12   0.05  -0.22
  21   1    -0.02   0.04  -0.13     0.02  -0.00  -0.19    -0.05   0.03  -0.08
  22   1     0.09   0.08  -0.03     0.16   0.09  -0.04     0.03   0.03  -0.02
  23   1    -0.04  -0.03  -0.06     0.03   0.03   0.02     0.13   0.04   0.01
  24   1    -0.01   0.02   0.01     0.02  -0.02  -0.01     0.13  -0.06   0.01
  25   1     0.05  -0.01   0.02    -0.02   0.01  -0.01     0.07  -0.04  -0.02
  26   1     0.09   0.01   0.06    -0.04  -0.04   0.00    -0.10  -0.03  -0.04
                     10                     11                     12
                        a                      a                      a 
 Frequencies --   332.1470               378.2268               400.1435
 Red. masses --     9.1517                11.0901                10.3238
 Frc consts  --     0.0000                 0.0000                 0.0000
 IR Inten    --    11.8725                 3.7450                 5.7153
 Raman Activ --     0.0000                 0.0000                 0.0000
 Depolar     --     0.0000                 0.0000                 0.0000
 Atom AN      X      Y      Z        X      Y      Z        X      Y      Z
   1   6    -0.10  -0.15  -0.00     0.19  -0.01   0.08     0.21  -0.18   0.10
   2   6    -0.09  -0.11   0.07     0.08   0.01  -0.11     0.05  -0.13  -0.13
   3   6    -0.14  -0.08  -0.01    -0.11  -0.08  -0.03    -0.12  -0.22   0.04
   4   6    -0.03   0.03  -0.06    -0.09   0.05   0.00    -0.04   0.02   0.11
   5   8     0.27   0.16  -0.12     0.10   0.21  -0.12    -0.19   0.13  -0.03
   6   8     0.05   0.18  -0.02     0.19   0.26   0.07    -0.07  -0.04   0.14
   7   7    -0.47   0.23   0.04    -0.05  -0.20  -0.05    -0.30  -0.20  -0.05
   8   6    -0.05  -0.03   0.04     0.24   0.03  -0.06     0.30   0.07   0.06
   9   7     0.06   0.01   0.02    -0.11  -0.06   0.03     0.06   0.06   0.06
  10   6     0.07  -0.06   0.04    -0.21  -0.19   0.11     0.13   0.17  -0.13
  11   7     0.24  -0.07   0.02     0.14  -0.19   0.07    -0.22   0.22  -0.05
  12   7     0.11  -0.14  -0.01    -0.47   0.11   0.04     0.25   0.09  -0.02
  13   1    -0.03  -0.08  -0.00     0.06   0.05   0.03     0.09  -0.06   0.03
  14   1    -0.03  -0.03  -0.03     0.04  -0.02   0.06     0.01  -0.05   0.01
  15   1    -0.04  -0.02   0.05     0.06   0.05  -0.07     0.07   0.02  -0.11
  16   1    -0.01  -0.05   0.02    -0.03   0.01  -0.04    -0.07  -0.01  -0.05
  17   1    -0.05  -0.03  -0.00    -0.03  -0.04  -0.01    -0.01  -0.10   0.01
  18   1    -0.01   0.17   0.10     0.11  -0.09   0.05    -0.01  -0.03   0.02
  19   1    -0.04  -0.05  -0.39    -0.03  -0.04   0.06    -0.05  -0.02  -0.06
  20   1     0.03  -0.07   0.33    -0.03  -0.02  -0.09    -0.09  -0.05  -0.02
  21   1    -0.03   0.02   0.02     0.06  -0.02  -0.12     0.06   0.02  -0.09
  22   1    -0.02  -0.01   0.01     0.16   0.07  -0.00     0.18   0.07   0.03
  23   1     0.08   0.02  -0.03     0.06   0.06   0.03    -0.10  -0.03   0.11
  24   1     0.10  -0.05   0.02     0.06  -0.11   0.02    -0.20   0.07  -0.11
  25   1     0.05  -0.03  -0.00    -0.24  -0.00  -0.00     0.13   0.04  -0.00
  26   1     0.09   0.10  -0.03     0.05   0.11  -0.08    -0.02   0.06  -0.14
                     13                     14                     15
                        a                      a                      a 
 Frequencies --   422.2198               439.0323               457.7384
 Red. masses --     4.7776                 9.6009                 6.5798
 Frc consts  --     0.0000                 0.0000                 0.0000
 IR Inten    --    25.7125                11.6728                51.2283
 Raman Activ --     0.0000                 0.0000                 0.0000
 Depolar     --     0.0000                 0.0000                 0.0000
 Atom AN      X      Y      Z        X      Y      Z        X      Y      Z
   1   6    -0.05   0.03  -0.03     0.13   0.06   0.00     0.02   0.15  -0.02
   2   6    -0.10   0.12   0.05    -0.11   0.28   0.04     0.11   0.01  -0.03
   3   6     0.05   0.09   0.14    -0.24   0.08   0.20    -0.12  -0.02  -0.13
   4   6     0.04  -0.03   0.11    -0.11   0.04   0.01    -0.06   0.05  -0.15
   5   8     0.23   0.02   0.07     0.34   0.07   0.17    -0.13  -0.28   0.19
   6   8    -0.18  -0.03   0.17    -0.09  -0.18  -0.05    -0.00   0.07  -0.19
   7   7     0.08   0.03  -0.03    -0.13  -0.25  -0.04    -0.06  -0.04   0.10
   8   6    -0.08  -0.14  -0.09     0.07  -0.07  -0.03    -0.02   0.17   0.10
   9   7    -0.02  -0.10  -0.15    -0.08   0.02  -0.28    -0.04   0.10   0.14
  10   6     0.03  -0.06  -0.05    -0.07   0.01  -0.18    -0.01   0.06   0.12
  11   7     0.04  -0.02  -0.05     0.03   0.06  -0.02     0.13   0.04  -0.03
  12   7     0.01  -0.01  -0.04     0.11  -0.09   0.14     0.07  -0.14  -0.04
  13   1    -0.04   0.01  -0.01     0.04  -0.01  -0.00     0.02   0.06  -0.00
  14   1     0.04   0.01   0.00     0.08   0.04  -0.02    -0.03   0.03   0.01
  15   1    -0.02   0.01  -0.04     0.01   0.12  -0.06     0.00   0.02   0.08
  16   1    -0.06   0.08   0.01    -0.10   0.16   0.01     0.11  -0.05  -0.00
  17   1     0.04   0.05   0.04    -0.09   0.05   0.06    -0.09  -0.03  -0.04
  18   1    -0.06   0.00  -0.01     0.02  -0.20  -0.08     0.18  -0.56  -0.19
  19   1     0.02   0.02   0.02    -0.05  -0.12  -0.03    -0.02  -0.10  -0.07
  20   1     0.02   0.03  -0.06     0.06  -0.01  -0.09     0.06  -0.04   0.12
  21   1    -0.02  -0.04   0.02     0.03  -0.03   0.03     0.02   0.02   0.03
  22   1    -0.05  -0.08  -0.03     0.01  -0.08  -0.01    -0.03   0.06   0.02
  23   1    -0.02   0.07   0.31     0.04   0.04  -0.15     0.04   0.07   0.04
  24   1    -0.26  -0.17  -0.27     0.16   0.11   0.14    -0.01  -0.09  -0.07
  25   1    -0.01   0.00   0.01     0.12  -0.02   0.00     0.07  -0.02   0.00
  26   1     0.27   0.38  -0.42     0.05   0.01   0.25     0.10   0.17  -0.21
                     16                     17                     18
                        a                      a                      a 
 Frequencies --   496.3874               519.1896               532.6091
 Red. masses --     7.9496                 8.1691                 6.7581
 Frc consts  --     0.0000                 0.0000                 0.0000
 IR Inten    --    52.0067                61.6297                33.0532
 Raman Activ --     0.0000                 0.0000                 0.0000
 Depolar     --     0.0000                 0.0000                 0.0000
 Atom AN      X      Y      Z        X      Y      Z        X      Y      Z
   1   6    -0.05  -0.28   0.06    -0.01   0.11  -0.05    -0.05  -0.07  -0.01
   2   6    -0.25   0.02   0.04     0.18  -0.09  -0.05     0.06  -0.16  -0.05
   3   6     0.03   0.14  -0.01     0.15  -0.09   0.04     0.11  -0.03  -0.09
   4   6     0.07   0.07  -0.05     0.01  -0.09   0.17     0.01   0.15   0.11
   5   8     0.09  -0.00   0.04    -0.09   0.22  -0.27    -0.02   0.32   0.06
   6   8    -0.06   0.09  -0.07    -0.19   0.15   0.31    -0.09  -0.07   0.11
   7   7     0.07   0.22   0.07     0.02   0.03   0.04     0.07   0.14   0.05
   8   6     0.08  -0.15  -0.08    -0.11  -0.18  -0.12    -0.01   0.03   0.04
   9   7     0.19  -0.13   0.08    -0.06  -0.13  -0.12    -0.05   0.08  -0.13
  10   6     0.18  -0.05  -0.00    -0.02   0.06  -0.01    -0.10  -0.16  -0.31
  11   7    -0.24  -0.11   0.06    -0.05   0.10   0.06     0.14  -0.08  -0.05
  12   7    -0.07   0.29  -0.08     0.07  -0.03   0.06    -0.04  -0.04   0.10
  13   1    -0.03  -0.14   0.01    -0.03   0.16  -0.00    -0.00  -0.02  -0.00
  14   1     0.05  -0.04  -0.04     0.00  -0.02   0.12    -0.05  -0.02  -0.01
  15   1    -0.03   0.02  -0.08     0.01  -0.07   0.04    -0.01  -0.06   0.04
  16   1    -0.16  -0.00  -0.00     0.12  -0.04  -0.01     0.06  -0.11  -0.01
  17   1    -0.00   0.05  -0.00     0.08  -0.06   0.01     0.06  -0.05  -0.03
  18   1     0.11  -0.40  -0.16     0.05  -0.30  -0.05     0.06  -0.30  -0.10
  19   1     0.03   0.01  -0.08     0.03   0.02  -0.06     0.04   0.03  -0.05
  20   1     0.06   0.02   0.11     0.00  -0.01   0.04     0.01  -0.01   0.10
  21   1    -0.03   0.00  -0.10     0.01  -0.07   0.06    -0.01   0.03   0.05
  22   1     0.10  -0.00  -0.01    -0.11  -0.11  -0.05    -0.02  -0.04   0.00
  23   1    -0.09  -0.23  -0.05     0.01  -0.08  -0.30     0.04   0.26   0.37
  24   1    -0.05   0.14   0.09     0.21   0.14   0.21    -0.12  -0.02  -0.13
  25   1    -0.15   0.06   0.00     0.07  -0.02  -0.03     0.02   0.01   0.06
  26   1     0.02   0.01   0.05     0.02   0.10  -0.19    -0.16  -0.22   0.28
                     19                     20                     21
                        a                      a                      a 
 Frequencies --   552.3986               586.1121               619.2231
 Red. masses --     8.5489                10.8655                 9.4137
 Frc consts  --     0.0000                 0.0000                 0.0000
 IR Inten    --    24.7496                 2.0040                21.7723
 Raman Activ --     0.0000                 0.0000                 0.0000
 Depolar     --     0.0000                 0.0000                 0.0000
 Atom AN      X      Y      Z        X      Y      Z        X      Y      Z
   1   6     0.03  -0.32   0.09     0.01  -0.05   0.05     0.01  -0.05  -0.02
   2   6    -0.08  -0.13  -0.00    -0.09   0.10   0.06    -0.02  -0.00  -0.06
   3   6     0.12   0.05  -0.09     0.06   0.07   0.08    -0.22   0.13  -0.39
   4   6    -0.02   0.08   0.06    -0.03  -0.26  -0.07    -0.23   0.05  -0.00
   5   8    -0.12   0.03   0.15     0.11  -0.24  -0.35     0.01   0.16   0.19
   6   8    -0.02  -0.16  -0.03     0.02   0.29   0.07     0.22  -0.13   0.03
   7   7     0.21   0.22  -0.00     0.11   0.08   0.00     0.14   0.07  -0.02
   8   6     0.14   0.05   0.09    -0.01  -0.02   0.05    -0.03  -0.19  -0.05
   9   7    -0.15   0.14  -0.25    -0.19  -0.14   0.33    -0.06  -0.20   0.26
  10   6    -0.24   0.08   0.08    -0.20   0.06  -0.23     0.00  -0.05  -0.28
  11   7     0.06   0.15  -0.01     0.01   0.18  -0.07    -0.04   0.07   0.05
  12   7    -0.09  -0.19   0.10     0.06  -0.15   0.10     0.09   0.03   0.06
  13   1     0.06  -0.26   0.01     0.02  -0.11   0.01    -0.02   0.07   0.00
  14   1    -0.02  -0.02  -0.15     0.04   0.03  -0.08     0.04  -0.04   0.08
  15   1     0.02  -0.01  -0.08     0.02   0.01  -0.09    -0.06   0.08   0.18
  16   1    -0.11  -0.07  -0.02    -0.13   0.07   0.01     0.16  -0.14  -0.01
  17   1     0.07   0.02  -0.02     0.01   0.06   0.02    -0.06   0.01  -0.11
  18   1    -0.04   0.04  -0.02     0.06  -0.08   0.06     0.03   0.10   0.17
  19   1     0.05   0.07   0.04     0.03   0.01  -0.01    -0.04  -0.08   0.16
  20   1     0.02   0.03   0.05     0.05   0.03  -0.00     0.04   0.00   0.04
  21   1    -0.00   0.03  -0.10     0.01  -0.06  -0.14     0.00  -0.07  -0.03
  22   1     0.17   0.02   0.04     0.10   0.11   0.03    -0.02   0.00  -0.01
  23   1     0.06   0.09  -0.24     0.02   0.23   0.11    -0.01  -0.01   0.00
  24   1     0.18  -0.06   0.08    -0.00   0.10  -0.01     0.01   0.16   0.07
  25   1     0.07  -0.07  -0.04     0.19   0.01   0.05     0.10   0.04   0.04
  26   1     0.08   0.20  -0.19    -0.01  -0.13   0.01     0.09   0.24  -0.03
                     22                     23                     24
                        a                      a                      a 
 Frequencies --   646.9823               752.1998               775.6224
 Red. masses --     8.8005                10.8161                 5.7085
 Frc consts  --     0.0000                 0.0000                 0.0000
 IR Inten    --   107.7053                40.2044               285.1143
 Raman Activ --     0.0000                 0.0000                 0.0000
 Depolar     --     0.0000                 0.0000                 0.0000
 Atom AN      X      Y      Z        X      Y      Z        X      Y      Z
   1   6     0.07  -0.09   0.02    -0.07   0.12   0.06    -0.03   0.03  -0.03
   2   6    -0.01   0.03  -0.01    -0.11   0.10  -0.02     0.01  -0.03   0.00
   3   6    -0.08   0.07  -0.13    -0.17   0.07  -0.28     0.06  -0.02   0.08
   4   6    -0.09  -0.00   0.01    -0.05  -0.15   0.03     0.00   0.09   0.01
   5   8     0.12   0.13  -0.02     0.09  -0.17  -0.25     0.03   0.03   0.04
   6   8     0.04   0.02   0.10    -0.04  -0.09   0.47     0.02   0.07  -0.13
   7   7     0.05   0.04   0.01     0.05   0.04  -0.02    -0.00  -0.00   0.01
   8   6    -0.01  -0.26  -0.12     0.04   0.25   0.17    -0.01   0.01   0.03
   9   7    -0.09  -0.12  -0.04    -0.04   0.09  -0.25    -0.06  -0.06   0.13
  10   6    -0.02   0.31   0.51     0.16  -0.08  -0.01    -0.04  -0.20  -0.31
  11   7    -0.03   0.20  -0.19     0.07  -0.09   0.08     0.08   0.28   0.16
  12   7     0.03  -0.12  -0.12     0.09   0.10  -0.00     0.01   0.06   0.24
  13   1    -0.00   0.02   0.01     0.07  -0.14   0.01    -0.02   0.02  -0.01
  14   1     0.08  -0.04   0.06    -0.06   0.10  -0.17    -0.02   0.00   0.00
  15   1    -0.01   0.05   0.05    -0.06   0.08   0.11    -0.00  -0.05  -0.02
  16   1     0.04  -0.04  -0.00     0.05  -0.09  -0.01    -0.01   0.02   0.00
  17   1    -0.02   0.01  -0.03    -0.04  -0.00  -0.08     0.02  -0.01   0.02
  18   1     0.05  -0.09   0.05     0.02  -0.08   0.12     0.01  -0.01  -0.03
  19   1    -0.01  -0.04   0.03    -0.05  -0.09   0.11     0.02   0.03  -0.04
  20   1     0.03   0.00   0.02     0.04  -0.01   0.05    -0.01   0.00  -0.01
  21   1     0.01  -0.10  -0.06    -0.01   0.08  -0.01     0.02  -0.04  -0.00
  22   1     0.02  -0.05  -0.03     0.10   0.04   0.05    -0.01   0.03   0.01
  23   1    -0.03  -0.00  -0.03    -0.01  -0.20  -0.05    -0.03  -0.32  -0.29
  24   1    -0.14  -0.27  -0.25    -0.04  -0.08  -0.04    -0.16  -0.37  -0.25
  25   1     0.05  -0.06  -0.10    -0.07  -0.04  -0.08    -0.03  -0.22  -0.37
  26   1    -0.09  -0.16   0.26    -0.01  -0.10  -0.00    -0.02  -0.04   0.05
                     25                     26                     27
                        a                      a                      a 
 Frequencies --   813.3592               865.3440               890.4068
 Red. masses --     3.2797                 9.1169                 5.4757
 Frc consts  --     0.0000                 0.0000                 0.0000
 IR Inten    --    32.5251                21.0026                22.7519
 Raman Activ --     0.0000                 0.0000                 0.0000
 Depolar     --     0.0000                 0.0000                 0.0000
 Atom AN      X      Y      Z        X      Y      Z        X      Y      Z
   1   6    -0.01  -0.01  -0.01    -0.08   0.18   0.10    -0.07   0.14   0.06
   2   6    -0.04  -0.01   0.01     0.24  -0.09   0.00    -0.15   0.22  -0.18
   3   6    -0.02   0.01  -0.02     0.12  -0.07   0.11     0.11  -0.04  -0.01
   4   6     0.02  -0.03  -0.00    -0.38  -0.11  -0.04     0.26   0.05   0.12
   5   8    -0.02  -0.01   0.01    -0.02   0.16   0.09    -0.01   0.05   0.05
   6   8     0.00  -0.02   0.01     0.01   0.06  -0.21     0.02   0.03  -0.11
   7   7    -0.00   0.00  -0.01     0.08   0.02   0.01    -0.10  -0.13   0.06
   8   6     0.04   0.03  -0.00    -0.16  -0.00   0.10    -0.14  -0.24   0.17
   9   7     0.07  -0.00   0.05    -0.28  -0.14  -0.10    -0.01  -0.05  -0.03
  10   6     0.01   0.09   0.09     0.17   0.06   0.07    -0.01  -0.00   0.00
  11   7    -0.10  -0.20  -0.22     0.07  -0.20   0.01    -0.03  -0.00  -0.03
  12   7     0.05   0.12   0.19     0.16   0.11  -0.07    -0.03  -0.01   0.02
  13   1    -0.03   0.01  -0.00     0.08  -0.16   0.01     0.22  -0.07   0.03
  14   1    -0.00  -0.01   0.01    -0.10   0.12  -0.18     0.06   0.11  -0.11
  15   1    -0.01   0.01   0.01     0.09  -0.13  -0.15    -0.20   0.00   0.27
  16   1    -0.01  -0.01   0.00    -0.07   0.03  -0.01     0.29  -0.04  -0.02
  17   1    -0.01   0.01  -0.01     0.05   0.00   0.03     0.06  -0.15  -0.01
  18   1    -0.01   0.01   0.00     0.05  -0.03   0.13    -0.03   0.05  -0.15
  19   1    -0.01  -0.01   0.02     0.04   0.04  -0.03     0.03   0.04  -0.09
  20   1    -0.00  -0.00   0.01     0.01   0.03  -0.04    -0.06  -0.02  -0.04
  21   1     0.04  -0.01   0.05    -0.04  -0.06  -0.16    -0.13  -0.06  -0.32
  22   1    -0.05  -0.02  -0.01     0.13   0.07   0.05     0.31   0.07   0.09
  23   1     0.01   0.24   0.20    -0.02  -0.16   0.11     0.00   0.05   0.01
  24   1     0.09   0.18   0.13    -0.03   0.08   0.01     0.02   0.03   0.03
  25   1    -0.03  -0.38  -0.72     0.06   0.01  -0.06     0.00  -0.02  -0.03
  26   1     0.02   0.03  -0.04     0.02   0.17   0.15    -0.02  -0.07  -0.08
                     28                     29                     30
                        a                      a                      a 
 Frequencies --   910.8451               954.7007               983.2591
 Red. masses --     6.4322                 8.6926                 5.5656
 Frc consts  --     0.0000                 0.0000                 0.0000
 IR Inten    --    16.2605                66.0537               229.3412
 Raman Activ --     0.0000                 0.0000                 0.0000
 Depolar     --     0.0000                 0.0000                 0.0000
 Atom AN      X      Y      Z        X      Y      Z        X      Y      Z
   1   6    -0.02  -0.37  -0.15     0.03  -0.17   0.15    -0.06   0.09   0.06
   2   6     0.07  -0.06  -0.24     0.43   0.09   0.06     0.00  -0.06  -0.07
   3   6    -0.11   0.16   0.28    -0.07   0.05  -0.10     0.05   0.10  -0.04
   4   6    -0.13   0.00  -0.02     0.25   0.09  -0.18     0.01   0.09  -0.35
   5   8     0.05  -0.13  -0.08    -0.02   0.04   0.05    -0.03   0.00   0.03
   6   8    -0.02  -0.00   0.02    -0.00  -0.07   0.20    -0.03  -0.09   0.23
   7   7     0.07   0.12   0.03    -0.08  -0.04  -0.01    -0.01  -0.09   0.30
   8   6    -0.05   0.04   0.17    -0.47  -0.08  -0.09     0.07  -0.01  -0.04
   9   7    -0.06   0.12  -0.07     0.01   0.11   0.04     0.10  -0.07   0.05
  10   6     0.04   0.00  -0.00     0.00  -0.04  -0.05    -0.02  -0.02   0.01
  11   7     0.03  -0.07   0.01     0.01  -0.02   0.02    -0.01   0.08  -0.03
  12   7     0.04   0.03  -0.01    -0.00   0.00   0.03    -0.05  -0.04   0.02
  13   1     0.14   0.26   0.01    -0.00  -0.09   0.03    -0.04  -0.10  -0.00
  14   1    -0.17  -0.26   0.26     0.05  -0.03   0.02    -0.01   0.07  -0.10
  15   1    -0.06  -0.03   0.10     0.25   0.16  -0.18    -0.01  -0.03  -0.00
  16   1     0.26   0.13  -0.02    -0.09   0.07  -0.01    -0.03  -0.16  -0.04
  17   1    -0.05   0.06   0.07    -0.14   0.06  -0.03    -0.24  -0.09  -0.03
  18   1     0.01  -0.01   0.06    -0.03   0.02  -0.08     0.00   0.00   0.13
  19   1     0.03  -0.02  -0.07    -0.06  -0.08   0.05     0.18   0.17  -0.41
  20   1     0.15   0.16  -0.19     0.03  -0.01   0.01     0.04   0.22  -0.44
  21   1    -0.11   0.09  -0.11    -0.23   0.05  -0.23     0.04  -0.01   0.05
  22   1     0.10   0.09   0.06     0.01   0.09  -0.00    -0.01  -0.06  -0.02
  23   1     0.00  -0.04   0.02     0.01   0.01  -0.02     0.00   0.05  -0.02
  24   1    -0.00   0.00   0.01     0.01  -0.01   0.01    -0.00   0.03  -0.01
  25   1    -0.00  -0.01  -0.03    -0.03  -0.04  -0.05    -0.01  -0.01   0.01
  26   1     0.02   0.03   0.05    -0.02  -0.06  -0.07     0.02   0.08   0.05
                     31                     32                     33
                        a                      a                      a 
 Frequencies --  1000.5933              1020.8042              1047.8985
 Red. masses --     7.8818                 6.7353                 6.2141
 Frc consts  --     0.0000                 0.0000                 0.0000
 IR Inten    --    30.9775                19.6099               111.0061
 Raman Activ --     0.0000                 0.0000                 0.0000
 Depolar     --     0.0000                 0.0000                 0.0000
 Atom AN      X      Y      Z        X      Y      Z        X      Y      Z
   1   6     0.02  -0.12   0.17     0.22  -0.18  -0.01     0.07   0.06  -0.10
   2   6     0.12   0.06  -0.07    -0.19   0.21   0.12    -0.07  -0.17   0.03
   3   6    -0.05   0.11  -0.07     0.19  -0.18  -0.10    -0.11   0.06  -0.00
   4   6    -0.10  -0.06   0.54    -0.13   0.06  -0.07     0.30   0.15   0.03
   5   8     0.07  -0.11  -0.10    -0.03  -0.06  -0.05     0.02  -0.02   0.02
   6   8     0.04   0.09  -0.27    -0.03  -0.02   0.04     0.06  -0.00   0.05
   7   7    -0.07  -0.01   0.16     0.12  -0.13   0.05    -0.04   0.07   0.03
   8   6    -0.09   0.10  -0.16    -0.13   0.06  -0.06     0.06  -0.06   0.03
   9   7    -0.01   0.02  -0.01    -0.20   0.22  -0.00    -0.36   0.04   0.00
  10   6     0.01   0.01  -0.03    -0.00   0.06  -0.03    -0.04   0.11   0.03
  11   7    -0.03  -0.05   0.03     0.09  -0.16   0.06     0.17  -0.20   0.04
  12   7     0.05   0.03  -0.01     0.04   0.07  -0.02    -0.09   0.07  -0.03
  13   1    -0.11  -0.14   0.02    -0.04   0.08   0.00    -0.06   0.05  -0.03
  14   1     0.04   0.01  -0.03     0.30  -0.06   0.15    -0.01  -0.01   0.02
  15   1     0.10   0.25   0.04    -0.02   0.20   0.10    -0.00  -0.04  -0.03
  16   1    -0.02  -0.24  -0.05     0.00   0.00   0.03    -0.10  -0.10  -0.01
  17   1     0.13  -0.20  -0.02     0.07  -0.10  -0.03    -0.08   0.01  -0.00
  18   1     0.00   0.03  -0.04     0.02  -0.02   0.10    -0.06   0.08  -0.23
  19   1    -0.00  -0.08  -0.11     0.19   0.29  -0.19    -0.04  -0.08  -0.01
  20   1     0.14   0.18  -0.26    -0.25  -0.13   0.07     0.11   0.10  -0.11
  21   1    -0.04   0.08   0.09    -0.04   0.03  -0.01     0.20  -0.26  -0.01
  22   1    -0.13  -0.04  -0.05    -0.12   0.11  -0.01    -0.06   0.10   0.01
  23   1    -0.00   0.01   0.01    -0.00  -0.15   0.05    -0.02  -0.31   0.10
  24   1     0.01  -0.06   0.01    -0.01  -0.00   0.00    -0.04   0.14   0.01
  25   1    -0.01   0.00  -0.00     0.12   0.02  -0.05     0.37   0.07  -0.07
  26   1    -0.00  -0.07  -0.06     0.01   0.07   0.06    -0.02  -0.14  -0.12
                     34                     35                     36
                        a                      a                      a 
 Frequencies --  1082.7272              1088.6487              1101.0587
 Red. masses --     6.2080                 9.2098                 6.6929
 Frc consts  --     0.0000                 0.0000                 0.0000
 IR Inten    --    11.9744                64.8297                98.5798
 Raman Activ --     0.0000                 0.0000                 0.0000
 Depolar     --     0.0000                 0.0000                 0.0000
 Atom AN      X      Y      Z        X      Y      Z        X      Y      Z
   1   6     0.14   0.11  -0.05    -0.14  -0.13  -0.05    -0.17  -0.07   0.19
   2   6    -0.09  -0.16   0.03     0.01   0.18   0.04     0.11   0.12  -0.19
   3   6    -0.03   0.02   0.01    -0.01  -0.02  -0.14     0.11   0.07   0.16
   4   6    -0.01  -0.04  -0.02     0.20  -0.50  -0.06    -0.04   0.24  -0.13
   5   8    -0.01  -0.01  -0.00    -0.05   0.30   0.21    -0.02  -0.14  -0.11
   6   8    -0.00  -0.00   0.03     0.01   0.05  -0.08    -0.00  -0.03   0.10
   7   7    -0.02   0.06   0.01     0.05  -0.03   0.05    -0.06  -0.07  -0.08
   8   6    -0.05  -0.12  -0.01     0.11   0.15   0.09     0.08  -0.01  -0.15
   9   7    -0.01   0.18   0.04    -0.03  -0.18  -0.06     0.11  -0.06   0.10
  10   6    -0.00   0.08  -0.13    -0.06   0.10  -0.04    -0.13   0.15  -0.05
  11   7    -0.23  -0.25   0.22    -0.06  -0.12   0.11    -0.01  -0.18   0.11
  12   7     0.20   0.21  -0.11     0.03   0.09  -0.06    -0.12   0.11  -0.06
  13   1     0.04   0.03  -0.01    -0.06   0.05  -0.01     0.01  -0.14   0.04
  14   1     0.22   0.05   0.01    -0.28  -0.10   0.03    -0.19   0.01  -0.10
  15   1    -0.07  -0.21  -0.04     0.07   0.23   0.02     0.00   0.08   0.07
  16   1    -0.07  -0.07   0.00     0.03   0.16   0.02     0.15  -0.01  -0.04
  17   1    -0.06   0.03   0.00    -0.13   0.04  -0.04     0.14  -0.05   0.04
  18   1     0.00  -0.01   0.01     0.01  -0.01  -0.04    -0.01   0.01  -0.02
  19   1    -0.04  -0.07   0.02     0.07   0.08  -0.12    -0.04  -0.02   0.11
  20   1     0.08   0.07  -0.07    -0.06  -0.01  -0.02    -0.04  -0.09   0.12
  21   1     0.00  -0.07  -0.07     0.06   0.00   0.06     0.01   0.05   0.10
  22   1     0.02   0.06   0.01     0.00  -0.02   0.01     0.01  -0.22  -0.05
  23   1     0.05   0.34  -0.11     0.01   0.05  -0.03     0.00  -0.02   0.01
  24   1     0.16  -0.51   0.08     0.05  -0.21   0.02     0.02  -0.18   0.01
  25   1     0.04   0.07  -0.00     0.15   0.06  -0.01     0.44   0.10  -0.08
  26   1     0.00   0.01   0.02    -0.04  -0.08  -0.08     0.03   0.15   0.15
                     37                     38                     39
                        a                      a                      a 
 Frequencies --  1110.6492              1120.2372              1142.7594
 Red. masses --     7.4245                 9.9428                 5.3722
 Frc consts  --     0.0000                 0.0000                 0.0000
 IR Inten    --    42.6681                12.7966                24.2745
 Raman Activ --     0.0000                 0.0000                 0.0000
 Depolar     --     0.0000                 0.0000                 0.0000
 Atom AN      X      Y      Z        X      Y      Z        X      Y      Z
   1   6    -0.19   0.04  -0.14    -0.11  -0.08  -0.18     0.05   0.09  -0.01
   2   6     0.13   0.04   0.11     0.06   0.06   0.10     0.01  -0.11   0.14
   3   6    -0.09  -0.05  -0.12     0.40   0.39  -0.28    -0.13  -0.05  -0.23
   4   6    -0.08   0.43   0.22    -0.08  -0.04   0.05    -0.07   0.05   0.32
   5   8     0.07  -0.20  -0.13    -0.01  -0.02  -0.03     0.04  -0.05  -0.04
   6   8     0.04  -0.03   0.02     0.00  -0.01   0.00    -0.00  -0.01  -0.08
   7   7     0.10  -0.06   0.02    -0.32  -0.28   0.21     0.07  -0.01   0.07
   8   6     0.11  -0.18   0.13     0.10  -0.08   0.18    -0.07  -0.01  -0.08
   9   7    -0.12  -0.04  -0.01     0.05   0.07  -0.06     0.25  -0.01   0.01
  10   6     0.11  -0.06   0.02    -0.03   0.02  -0.00    -0.11   0.07  -0.02
  11   7    -0.12  -0.00  -0.00     0.02  -0.01   0.00     0.04  -0.04   0.02
  12   7     0.12   0.04  -0.03    -0.05  -0.00   0.00    -0.17   0.01   0.00
  13   1    -0.13   0.05  -0.04    -0.16   0.09  -0.05     0.30   0.05   0.03
  14   1    -0.31  -0.05  -0.02     0.04  -0.06   0.08     0.01   0.03  -0.01
  15   1     0.13   0.17  -0.07    -0.00  -0.16  -0.10    -0.02  -0.23  -0.09
  16   1    -0.06   0.15   0.03    -0.07   0.02   0.01    -0.03   0.28   0.06
  17   1    -0.05   0.02  -0.03     0.19   0.18  -0.05    -0.23   0.19  -0.05
  18   1    -0.01   0.03  -0.06     0.01  -0.02   0.06     0.03  -0.03   0.11
  19   1     0.13   0.19  -0.13    -0.11  -0.16   0.03     0.09   0.11  -0.13
  20   1    -0.15  -0.08   0.05    -0.05  -0.03  -0.04    -0.08  -0.00  -0.04
  21   1     0.12  -0.20  -0.05    -0.01  -0.00  -0.05    -0.17   0.20  -0.01
  22   1     0.08   0.04   0.05     0.05   0.08   0.05     0.10  -0.18  -0.02
  23   1     0.02   0.20  -0.05    -0.00  -0.04   0.02    -0.01  -0.10   0.03
  24   1     0.07  -0.08   0.05    -0.01   0.01  -0.01    -0.02   0.03  -0.01
  25   1    -0.12   0.01   0.04     0.06   0.01  -0.01     0.29   0.04  -0.07
  26   1     0.01  -0.04  -0.03     0.01   0.06   0.05    -0.01  -0.10  -0.09
                     40                     41                     42
                        a                      a                      a 
 Frequencies --  1157.1493              1187.6605              1203.6185
 Red. masses --     7.8715                 7.0864                 4.2864
 Frc consts  --     0.0000                 0.0000                 0.0000
 IR Inten    --    35.9491                54.8948                63.7988
 Raman Activ --     0.0000                 0.0000                 0.0000
 Depolar     --     0.0000                 0.0000                 0.0000
 Atom AN      X      Y      Z        X      Y      Z        X      Y      Z
   1   6     0.27  -0.03   0.09    -0.12  -0.12   0.23    -0.09  -0.11   0.06
   2   6    -0.16  -0.17  -0.00     0.05   0.10  -0.16     0.04   0.13   0.07
   3   6     0.13   0.27  -0.02     0.10   0.06  -0.04     0.01  -0.19  -0.18
   4   6     0.06   0.09  -0.00     0.02   0.01  -0.02    -0.05   0.02   0.01
   5   8     0.02  -0.01  -0.01     0.06   0.03   0.08    -0.06  -0.03  -0.07
   6   8     0.06   0.00   0.04    -0.05  -0.01  -0.05     0.16   0.01   0.14
   7   7    -0.09  -0.15   0.08    -0.04  -0.05   0.02    -0.01   0.08   0.04
   8   6    -0.18   0.28  -0.16     0.15  -0.12  -0.26     0.08   0.12  -0.00
   9   7    -0.21  -0.31  -0.00    -0.32   0.30   0.14    -0.18  -0.15   0.04
  10   6     0.07  -0.03   0.02     0.03   0.01  -0.01     0.01   0.03  -0.00
  11   7    -0.06   0.02  -0.01     0.04  -0.06   0.01    -0.00   0.01  -0.01
  12   7     0.13   0.01  -0.02     0.16   0.00   0.00     0.10  -0.01  -0.01
  13   1     0.42   0.04   0.07     0.01  -0.15   0.05    -0.05  -0.03   0.01
  14   1    -0.22  -0.05  -0.02    -0.01   0.01  -0.05     0.19   0.01   0.04
  15   1    -0.02   0.03   0.03    -0.11  -0.22   0.02    -0.08  -0.26  -0.04
  16   1    -0.01  -0.07   0.00     0.18   0.24  -0.00     0.08   0.35   0.05
  17   1     0.04   0.25   0.02    -0.10   0.14  -0.01    -0.01  -0.15  -0.05
  18   1    -0.03   0.06  -0.17     0.04  -0.05   0.21    -0.10   0.13  -0.53
  19   1     0.02   0.04  -0.04    -0.01  -0.01   0.01    -0.02  -0.08  -0.03
  20   1    -0.12  -0.09   0.07    -0.02  -0.02   0.01     0.09   0.09  -0.11
  21   1     0.04  -0.01   0.06     0.11  -0.06   0.13    -0.05   0.15   0.09
  22   1    -0.10  -0.03  -0.06    -0.06  -0.14  -0.07     0.00  -0.09  -0.01
  23   1     0.01   0.08  -0.02     0.01  -0.05   0.00    -0.00  -0.01   0.03
  24   1     0.03  -0.03   0.02     0.01   0.04   0.02     0.01  -0.02   0.00
  25   1    -0.13  -0.01   0.03    -0.22  -0.04   0.03    -0.11  -0.02   0.02
  26   1     0.01   0.02   0.03    -0.04  -0.25  -0.24     0.03   0.20   0.18
                     43                     44                     45
                        a                      a                      a 
 Frequencies --  1223.0982              1227.3735              1259.3465
 Red. masses --     7.8373                 4.3574                 4.1962
 Frc consts  --     0.0000                 0.0000                 0.0000
 IR Inten    --    51.2269                16.7325                43.7135
 Raman Activ --     0.0000                 0.0000                 0.0000
 Depolar     --     0.0000                 0.0000                 0.0000
 Atom AN      X      Y      Z        X      Y      Z        X      Y      Z
   1   6     0.00   0.11  -0.01    -0.06  -0.01   0.05    -0.04   0.08  -0.24
   2   6    -0.03  -0.09   0.01     0.14  -0.04  -0.28     0.02  -0.02   0.08
   3   6    -0.06   0.07  -0.01    -0.10   0.24   0.16     0.00   0.05   0.08
   4   6    -0.04  -0.33   0.07    -0.02  -0.09   0.16     0.00   0.06  -0.10
   5   8    -0.10  -0.02  -0.07     0.01  -0.01  -0.02     0.04   0.01   0.05
   6   8     0.07   0.03   0.06     0.07   0.02   0.01     0.01  -0.00   0.02
   7   7     0.03  -0.02   0.03     0.09  -0.11  -0.08     0.00  -0.02  -0.02
   8   6     0.04  -0.30  -0.15     0.05   0.05   0.11     0.14  -0.06   0.03
   9   7     0.11   0.46   0.12    -0.01  -0.09  -0.06    -0.25  -0.05   0.13
  10   6    -0.10   0.09  -0.07    -0.01   0.02   0.00    -0.09   0.14  -0.03
  11   7     0.11  -0.03   0.01    -0.00   0.01  -0.01     0.04  -0.08   0.03
  12   7     0.02  -0.06   0.04    -0.00  -0.01  -0.00     0.15  -0.00  -0.01
  13   1     0.14  -0.00   0.01    -0.31  -0.09  -0.03    -0.00   0.12  -0.05
  14   1    -0.23   0.00  -0.06     0.29   0.06   0.01     0.06  -0.00   0.02
  15   1     0.05   0.15   0.01    -0.04  -0.13  -0.00     0.08   0.12  -0.03
  16   1    -0.04  -0.06  -0.00     0.07  -0.20  -0.09    -0.14  -0.27  -0.02
  17   1    -0.01   0.12   0.01    -0.37   0.27   0.04     0.05  -0.05   0.02
  18   1    -0.06   0.06  -0.29    -0.04   0.05  -0.20    -0.01   0.02  -0.03
  19   1     0.05   0.05  -0.07     0.11   0.20  -0.06     0.01   0.02   0.01
  20   1    -0.06  -0.03   0.02    -0.20  -0.17   0.19    -0.01  -0.02   0.03
  21   1     0.04  -0.10  -0.02    -0.05   0.09   0.01    -0.28   0.40   0.04
  22   1     0.06  -0.07  -0.02    -0.05   0.10   0.03     0.30  -0.43   0.00
  23   1    -0.01  -0.14   0.07    -0.01  -0.01   0.02    -0.01  -0.08   0.04
  24   1    -0.03   0.02  -0.03     0.01  -0.01  -0.00     0.02  -0.01   0.02
  25   1    -0.18  -0.05   0.02     0.00   0.00   0.00    -0.14  -0.03   0.01
  26   1     0.04   0.26   0.24     0.01   0.02   0.03    -0.02  -0.15  -0.13
                     46                     47                     48
                        a                      a                      a 
 Frequencies --  1289.0055              1305.0885              1331.4508
 Red. masses --     3.7226                 5.3642                 6.2669
 Frc consts  --     0.0000                 0.0000                 0.0000
 IR Inten    --   104.7842               138.2372                91.5674
 Raman Activ --     0.0000                 0.0000                 0.0000
 Depolar     --     0.0000                 0.0000                 0.0000
 Atom AN      X      Y      Z        X      Y      Z        X      Y      Z
   1   6     0.06  -0.06  -0.05     0.11  -0.02   0.01    -0.31  -0.01  -0.07
   2   6    -0.01   0.19   0.12     0.06   0.22   0.09    -0.03  -0.08  -0.00
   3   6     0.27   0.10   0.02    -0.06   0.11   0.04     0.31  -0.11   0.04
   4   6     0.09   0.03   0.15    -0.34  -0.10  -0.12    -0.20  -0.05   0.01
   5   8    -0.04  -0.04  -0.06     0.10   0.06   0.09     0.02   0.02   0.02
   6   8    -0.03   0.00  -0.06     0.09   0.00   0.10     0.05   0.01   0.03
   7   7    -0.04   0.02  -0.18     0.06  -0.03  -0.03    -0.06   0.04  -0.03
   8   6    -0.03   0.02  -0.02     0.05  -0.13  -0.06     0.08  -0.00  -0.04
   9   7    -0.01  -0.02  -0.01     0.05   0.12   0.01    -0.09   0.12   0.02
  10   6    -0.06   0.08  -0.03     0.12  -0.17   0.06     0.23  -0.27   0.10
  11   7     0.02  -0.02   0.00    -0.04   0.05  -0.01    -0.06   0.08  -0.03
  12   7     0.04  -0.02   0.01    -0.09   0.04  -0.01    -0.10   0.05  -0.02
  13   1     0.09   0.04   0.00     0.07  -0.00   0.01     0.31   0.06   0.03
  14   1    -0.18  -0.08   0.04    -0.26  -0.06  -0.00     0.26   0.04   0.03
  15   1    -0.05  -0.15  -0.03    -0.09  -0.29  -0.05     0.12   0.33   0.02
  16   1    -0.09  -0.15   0.00    -0.10  -0.20  -0.01     0.01  -0.05  -0.00
  17   1    -0.60  -0.44  -0.06     0.09  -0.24  -0.00    -0.31   0.11   0.00
  18   1     0.03  -0.03   0.13    -0.06   0.07  -0.30    -0.02   0.03  -0.14
  19   1    -0.06  -0.04   0.12     0.05   0.06  -0.04    -0.06  -0.08   0.07
  20   1     0.03  -0.04   0.08    -0.07  -0.05   0.04     0.09   0.03  -0.01
  21   1     0.04  -0.05  -0.01    -0.09   0.10  -0.01     0.05  -0.02   0.06
  22   1     0.01  -0.01  -0.01    -0.13   0.14  -0.01     0.02  -0.04  -0.01
  23   1    -0.01  -0.05   0.04     0.02   0.09  -0.08     0.02   0.14  -0.09
  24   1     0.01  -0.01   0.00    -0.03   0.03  -0.01    -0.05   0.05  -0.03
  25   1    -0.10  -0.02   0.02     0.17   0.03  -0.04     0.20   0.04  -0.03
  26   1     0.02   0.13   0.12    -0.03  -0.25  -0.24    -0.01  -0.04  -0.04
                     49                     50                     51
                        a                      a                      a 
 Frequencies --  1335.9954              1350.9053              1355.8275
 Red. masses --     5.0990                 5.7960                 5.0885
 Frc consts  --     0.0000                 0.0000                 0.0000
 IR Inten    --    21.6011                26.2321                43.3272
 Raman Activ --     0.0000                 0.0000                 0.0000
 Depolar     --     0.0000                 0.0000                 0.0000
 Atom AN      X      Y      Z        X      Y      Z        X      Y      Z
   1   6    -0.34  -0.13  -0.08    -0.14  -0.09  -0.03    -0.26   0.05   0.04
   2   6     0.18   0.08   0.08     0.13   0.40   0.03     0.03  -0.15   0.03
   3   6    -0.26   0.19   0.02    -0.08  -0.36  -0.03    -0.01   0.12   0.02
   4   6     0.04  -0.06  -0.02     0.19   0.06   0.06    -0.03   0.07  -0.05
   5   8     0.01   0.01   0.01    -0.06  -0.02  -0.04     0.03  -0.00   0.02
   6   8    -0.01   0.00  -0.01    -0.04   0.00  -0.04     0.00  -0.01   0.02
   7   7     0.07  -0.06  -0.01     0.01   0.05   0.06    -0.00  -0.02  -0.02
   8   6    -0.09   0.21  -0.01     0.14  -0.07  -0.02     0.24  -0.18   0.01
   9   7     0.08   0.02   0.01    -0.09  -0.04  -0.01     0.06  -0.14  -0.08
  10   6    -0.04   0.02  -0.01     0.02   0.00   0.00    -0.19   0.24  -0.09
  11   7     0.01  -0.01   0.01    -0.01   0.01  -0.01     0.04  -0.07   0.02
  12   7     0.02  -0.00   0.00     0.00  -0.00   0.00     0.08  -0.04   0.01
  13   1     0.33   0.04   0.03     0.22   0.06   0.03     0.32   0.02   0.05
  14   1     0.31  -0.01   0.10    -0.07  -0.03   0.01     0.12   0.07  -0.02
  15   1     0.02  -0.16  -0.10    -0.08  -0.19   0.01     0.08   0.13  -0.01
  16   1    -0.07  -0.12  -0.01    -0.15  -0.40  -0.06     0.01   0.11   0.02
  17   1     0.20  -0.21   0.00     0.05   0.42   0.03     0.03  -0.17  -0.01
  18   1     0.00  -0.00   0.02     0.02  -0.02   0.10    -0.00  -0.00   0.00
  19   1     0.07   0.10  -0.06    -0.01  -0.04  -0.02     0.01   0.02   0.01
  20   1    -0.10  -0.06   0.05     0.03   0.05  -0.07    -0.00  -0.02   0.02
  21   1     0.28  -0.33   0.03    -0.04   0.08   0.01    -0.11   0.18   0.05
  22   1     0.15  -0.17  -0.00    -0.16   0.13  -0.02    -0.34   0.46  -0.00
  23   1    -0.00  -0.02   0.00    -0.00   0.00   0.02    -0.02  -0.12   0.09
  24   1    -0.01   0.01  -0.00     0.01  -0.02   0.01     0.06  -0.06   0.04
  25   1    -0.05   0.00   0.02    -0.01  -0.00   0.00    -0.14  -0.03   0.02
  26   1     0.00  -0.01  -0.00     0.01   0.13   0.12    -0.00  -0.07  -0.07
                     52                     53                     54
                        a                      a                      a 
 Frequencies --  1362.7905              1466.4385              1467.3845
 Red. masses --     8.1249                 3.3414                 2.1902
 Frc consts  --     0.0000                 0.0000                 0.0000
 IR Inten    --   335.1715               144.2796                14.7875
 Raman Activ --     0.0000                 0.0000                 0.0000
 Depolar     --     0.0000                 0.0000                 0.0000
 Atom AN      X      Y      Z        X      Y      Z        X      Y      Z
   1   6    -0.03   0.05   0.00     0.01   0.04  -0.03    -0.01  -0.07   0.05
   2   6     0.03  -0.12   0.03    -0.03   0.02   0.02     0.05  -0.03  -0.03
   3   6    -0.20   0.25  -0.03    -0.00  -0.00  -0.00     0.01   0.02   0.00
   4   6     0.37  -0.11   0.05    -0.00  -0.00  -0.02    -0.03  -0.02  -0.01
   5   8    -0.08  -0.02  -0.05     0.01   0.00   0.01     0.01   0.00   0.01
   6   8    -0.07   0.03  -0.08    -0.00   0.00   0.00     0.00  -0.00   0.00
   7   7     0.03  -0.05  -0.01     0.00  -0.00   0.00     0.00  -0.00  -0.01
   8   6     0.15  -0.12  -0.05    -0.07  -0.03  -0.07     0.15   0.10   0.14
   9   7    -0.31   0.09   0.03    -0.04   0.02   0.01    -0.01   0.06   0.03
  10   6     0.26  -0.27   0.10     0.16  -0.11  -0.03     0.07  -0.06  -0.01
  11   7    -0.05   0.08  -0.03    -0.11   0.27  -0.18    -0.05   0.12  -0.08
  12   7    -0.09   0.04  -0.01    -0.11  -0.04   0.02    -0.04  -0.01   0.01
  13   1     0.04  -0.02   0.00     0.00  -0.13  -0.02    -0.01   0.19   0.02
  14   1     0.02   0.01   0.00    -0.01  -0.05   0.12     0.03   0.08  -0.17
  15   1     0.01  -0.04  -0.03     0.03  -0.01  -0.08    -0.05   0.01   0.13
  16   1    -0.01   0.12   0.02     0.07  -0.03   0.01    -0.13   0.06  -0.01
  17   1     0.10  -0.23  -0.02     0.02   0.01   0.00    -0.01  -0.03  -0.00
  18   1     0.03  -0.04   0.17     0.00  -0.01   0.01     0.00   0.00  -0.00
  19   1     0.04   0.06  -0.03     0.00   0.01   0.00     0.00   0.01   0.01
  20   1    -0.08  -0.05   0.04     0.01   0.00  -0.00     0.00  -0.00   0.01
  21   1    -0.16   0.24   0.04     0.03   0.03   0.22    -0.05  -0.09  -0.55
  22   1    -0.08   0.02  -0.01     0.20   0.11   0.03    -0.44  -0.37  -0.08
  23   1     0.02   0.15  -0.08    -0.14  -0.26   0.44    -0.06  -0.12   0.19
  24   1    -0.05   0.04  -0.03     0.47  -0.32   0.23     0.20  -0.14   0.10
  25   1     0.17   0.02  -0.04     0.06   0.00   0.01     0.01   0.00   0.01
  26   1     0.02   0.23   0.21    -0.00  -0.01  -0.02    -0.00  -0.01  -0.01
                     55                     56                     57
                        a                      a                      a 
 Frequencies --  1471.4821              1487.2186              1540.1226
 Red. masses --     1.9963                 2.0264                 2.1262
 Frc consts  --     0.0000                 0.0000                 0.0000
 IR Inten    --     2.1108                 0.1136                40.5700
 Raman Activ --     0.0000                 0.0000                 0.0000
 Depolar     --     0.0000                 0.0000                 0.0000
 Atom AN      X      Y      Z        X      Y      Z        X      Y      Z
   1   6    -0.01   0.23  -0.13     0.01  -0.10   0.04    -0.01   0.00   0.00
   2   6     0.08  -0.03  -0.07     0.22  -0.06  -0.13    -0.00  -0.01  -0.01
   3   6     0.03  -0.01  -0.00     0.02   0.02   0.00     0.02   0.00   0.08
   4   6    -0.01   0.01  -0.01    -0.01  -0.00  -0.01    -0.00   0.03  -0.01
   5   8     0.00   0.00   0.00     0.00   0.00   0.00     0.00  -0.01   0.00
   6   8     0.00  -0.00   0.00    -0.00   0.00   0.01    -0.01  -0.00  -0.00
   7   7    -0.01   0.00   0.00     0.00  -0.00  -0.00     0.21   0.19   0.04
   8   6     0.05   0.04   0.04    -0.08  -0.03  -0.06     0.00  -0.00   0.00
   9   7     0.01  -0.01   0.00    -0.00  -0.00  -0.00     0.00  -0.01  -0.00
  10   6    -0.02   0.02  -0.00     0.01  -0.01  -0.00    -0.00   0.00   0.00
  11   7     0.01  -0.02   0.01    -0.01   0.02  -0.01    -0.00   0.00  -0.00
  12   7     0.01   0.00  -0.00    -0.01  -0.00   0.00     0.00   0.00  -0.00
  13   1     0.08  -0.59  -0.06    -0.02   0.21   0.02    -0.00  -0.00   0.00
  14   1    -0.02  -0.23   0.55     0.02   0.07  -0.19     0.01   0.00  -0.00
  15   1    -0.10   0.03   0.26    -0.22   0.02   0.54     0.01   0.02  -0.00
  16   1    -0.26   0.10  -0.03    -0.57   0.19  -0.05     0.01  -0.01  -0.00
  17   1     0.00   0.02  -0.00    -0.01  -0.03  -0.00    -0.04  -0.04   0.02
  18   1     0.00  -0.00  -0.01     0.00  -0.01  -0.01     0.00   0.00   0.02
  19   1    -0.00  -0.01   0.00    -0.00  -0.01   0.01    -0.12  -0.62  -0.21
  20   1     0.00   0.00  -0.00    -0.01  -0.01   0.00    -0.66  -0.07  -0.15
  21   1    -0.02  -0.01  -0.14     0.04   0.01   0.23    -0.00   0.00  -0.00
  22   1    -0.11  -0.09  -0.02     0.20   0.13   0.03    -0.00  -0.00   0.00
  23   1     0.01   0.01  -0.02    -0.01  -0.01   0.02    -0.00  -0.00   0.01
  24   1    -0.02   0.02  -0.01     0.03  -0.02   0.01     0.01  -0.00   0.01
  25   1    -0.01  -0.00   0.00     0.01   0.00  -0.00    -0.00   0.00   0.00
  26   1    -0.00  -0.01  -0.01    -0.00  -0.00  -0.00    -0.00  -0.01  -0.01
                     58                     59                     60
                        a                      a                      a 
 Frequencies --  1713.2575              2851.6548              2863.1714
 Red. masses --    12.2504                 1.7191                 1.7369
 Frc consts  --     0.0000                 0.0000                 0.0000
 IR Inten    --   433.9584                59.1755                57.7798
 Raman Activ --     0.0000                 0.0000                 0.0000
 Depolar     --     0.0000                 0.0000                 0.0000
 Atom AN      X      Y      Z        X      Y      Z        X      Y      Z
   1   6    -0.00   0.01   0.00    -0.00   0.00   0.01    -0.00   0.01   0.01
   2   6    -0.00  -0.00  -0.00     0.00  -0.00   0.00     0.00  -0.00   0.01
   3   6    -0.00  -0.00  -0.00     0.01   0.01  -0.25     0.00   0.00  -0.02
   4   6     0.03  -0.00   0.01    -0.00   0.00  -0.01     0.00   0.00  -0.00
   5   8    -0.00  -0.00  -0.01     0.00  -0.00   0.00    -0.00   0.00   0.00
   6   8    -0.00  -0.00   0.00     0.00   0.00   0.00    -0.00   0.00   0.00
   7   7    -0.00   0.00  -0.00     0.01   0.01  -0.01     0.00   0.00  -0.00
   8   6    -0.00  -0.02  -0.00    -0.00  -0.00   0.02     0.04   0.05  -0.25
   9   7     0.06   0.02  -0.01    -0.00   0.00   0.00     0.01  -0.02  -0.01
  10   6    -0.58  -0.48   0.26    -0.00   0.00  -0.00    -0.00   0.00  -0.00
  11   7     0.02   0.12  -0.08     0.00  -0.00  -0.00    -0.00  -0.00   0.00
  12   7     0.43   0.30  -0.18     0.00  -0.00   0.00     0.00   0.00   0.00
  13   1    -0.00  -0.00   0.00     0.00  -0.00  -0.01     0.00   0.01  -0.05
  14   1    -0.01   0.00  -0.00     0.00  -0.01  -0.00     0.00  -0.02  -0.00
  15   1     0.00   0.00  -0.00    -0.02   0.01  -0.01    -0.01   0.00  -0.00
  16   1     0.00  -0.00   0.00     0.01   0.00  -0.04    -0.00   0.00  -0.02
  17   1    -0.00   0.00   0.00    -0.06  -0.07   0.96    -0.00  -0.01   0.08
  18   1    -0.00  -0.00   0.00    -0.00  -0.00   0.00    -0.00  -0.00   0.00
  19   1     0.00   0.00   0.00    -0.00   0.00   0.00     0.00   0.00   0.00
  20   1     0.00   0.00   0.00     0.01  -0.00   0.00     0.00  -0.00  -0.00
  21   1    -0.01   0.01   0.01     0.00   0.00   0.00    -0.05  -0.04  -0.03
  22   1    -0.00   0.02   0.00     0.01   0.01  -0.08    -0.11  -0.08   0.95
  23   1    -0.03  -0.08   0.08    -0.00  -0.00   0.00     0.00  -0.00  -0.00
  24   1     0.03   0.06   0.02     0.00  -0.00   0.00    -0.00  -0.00   0.00
  25   1     0.08   0.09  -0.04    -0.00   0.00  -0.00    -0.00   0.00  -0.00
  26   1     0.00   0.02   0.02    -0.00   0.00  -0.00     0.00   0.00  -0.00
                     61                     62                     63
                        a                      a                      a 
 Frequencies --  2972.6966              2980.2000              2982.9146
 Red. masses --     1.9265                 1.6846                 1.6864
 Frc consts  --     0.0000                 0.0000                 0.0000
 IR Inten    --    35.9265                13.9725                21.1755
 Raman Activ --     0.0000                 0.0000                 0.0000
 Depolar     --     0.0000                 0.0000                 0.0000
 Atom AN      X      Y      Z        X      Y      Z        X      Y      Z
   1   6    -0.01  -0.00   0.06     0.02  -0.05  -0.02     0.03  -0.08  -0.18
   2   6    -0.17   0.08  -0.20    -0.02   0.00   0.04    -0.11   0.03   0.08
   3   6    -0.01   0.00  -0.01    -0.00   0.00   0.00    -0.00   0.00   0.00
   4   6     0.00  -0.00  -0.00    -0.00  -0.00   0.00     0.00   0.00   0.00
   5   8     0.00   0.00   0.00     0.00   0.00   0.00     0.00  -0.00   0.00
   6   8    -0.00  -0.00   0.00    -0.00  -0.00  -0.00    -0.00  -0.00  -0.00
   7   7     0.00  -0.00   0.00     0.00  -0.00  -0.00     0.00  -0.00  -0.00
   8   6     0.00  -0.00   0.00     0.19   0.14  -0.04    -0.04  -0.04  -0.00
   9   7    -0.00  -0.00  -0.00     0.00   0.01   0.00    -0.00  -0.00   0.00
  10   6     0.00   0.00  -0.00     0.00   0.00  -0.00    -0.00  -0.00  -0.00
  11   7    -0.00   0.00   0.00    -0.00  -0.00  -0.00     0.00   0.00   0.00
  12   7    -0.00  -0.00   0.00    -0.00  -0.00   0.00     0.00   0.00   0.00
  13   1     0.03   0.02  -0.26     0.00  -0.01  -0.01    -0.05  -0.05   0.51
  14   1    -0.00   0.00   0.01    -0.04   0.20   0.09    -0.07   0.33   0.13
  15   1     0.70  -0.27   0.30     0.08  -0.03   0.04     0.39  -0.15   0.20
  16   1    -0.07  -0.03   0.43     0.01   0.02  -0.18     0.04   0.06  -0.52
  17   1    -0.00  -0.00   0.03     0.00   0.00  -0.00     0.00   0.00   0.00
  18   1     0.00  -0.00  -0.00     0.00   0.00  -0.00     0.00   0.00  -0.00
  19   1    -0.00   0.00  -0.00    -0.00   0.00   0.00    -0.00   0.00  -0.00
  20   1    -0.00   0.00   0.00    -0.00   0.00   0.00    -0.00   0.00   0.00
  21   1    -0.01  -0.00   0.00    -0.71  -0.55   0.19     0.18   0.14  -0.05
  22   1     0.00  -0.00   0.00     0.04   0.02  -0.07    -0.01  -0.01   0.04
  23   1     0.00  -0.00  -0.00    -0.00   0.00   0.00    -0.00  -0.00  -0.00
  24   1     0.00  -0.00   0.00     0.00   0.00   0.00    -0.00  -0.00  -0.00
  25   1     0.00  -0.00  -0.00    -0.00  -0.00  -0.00    -0.00   0.00  -0.00
  26   1    -0.00   0.00  -0.00    -0.00   0.00  -0.00    -0.00   0.00  -0.00
                     64                     65                     66
                        a                      a                      a 
 Frequencies --  2992.0001              2995.5828              3359.3169
 Red. masses --     1.8260                 1.5299                 1.8516
 Frc consts  --     0.0000                 0.0000                 0.0000
 IR Inten    --    68.1844                47.8711               147.4490
 Raman Activ --     0.0000                 0.0000                 0.0000
 Depolar     --     0.0000                 0.0000                 0.0000
 Atom AN      X      Y      Z        X      Y      Z        X      Y      Z
   1   6     0.04  -0.08  -0.19    -0.02   0.20  -0.06    -0.00  -0.00   0.00
   2   6     0.06  -0.00  -0.16    -0.03   0.02  -0.03     0.00  -0.00  -0.00
   3   6     0.00  -0.00  -0.01    -0.00  -0.00  -0.00     0.00  -0.00  -0.00
   4   6    -0.00   0.00  -0.00     0.00  -0.00  -0.00     0.01  -0.01  -0.01
   5   8    -0.00   0.00   0.00     0.00  -0.00   0.00     0.22  -0.07   0.04
   6   8    -0.00   0.00   0.00    -0.00  -0.00   0.00     0.00   0.00   0.00
   7   7    -0.00   0.00   0.00     0.00  -0.00   0.00    -0.00  -0.01  -0.00
   8   6     0.01   0.01  -0.02     0.04   0.03  -0.01     0.00  -0.00  -0.00
   9   7     0.00   0.00   0.00     0.00   0.00  -0.00     0.00  -0.00   0.00
  10   6    -0.00   0.00  -0.00     0.00   0.00  -0.00    -0.00   0.01  -0.00
  11   7     0.00  -0.00   0.00    -0.00  -0.00   0.00    -0.00  -0.02   0.04
  12   7     0.00  -0.00   0.00    -0.00  -0.00   0.00     0.00  -0.00   0.00
  13   1    -0.06  -0.06   0.54    -0.06  -0.02   0.53     0.00  -0.00  -0.00
  14   1    -0.07   0.35   0.14     0.14  -0.69  -0.33    -0.00   0.00   0.00
  15   1    -0.16   0.07  -0.10     0.13  -0.05   0.06    -0.00   0.00  -0.00
  16   1    -0.06  -0.07   0.65    -0.01  -0.00   0.04    -0.00  -0.00   0.00
  17   1    -0.00  -0.00   0.03    -0.00  -0.00   0.01    -0.00   0.00  -0.00
  18   1     0.00  -0.00  -0.00     0.00   0.00   0.00    -0.01  -0.00   0.00
  19   1     0.00  -0.00  -0.00    -0.00   0.00   0.00     0.02  -0.01   0.00
  20   1     0.00  -0.00  -0.00    -0.00   0.00   0.00    -0.01   0.03   0.01
  21   1    -0.04  -0.03   0.01    -0.15  -0.11   0.04     0.00   0.00  -0.00
  22   1    -0.00  -0.00   0.04     0.00   0.00  -0.00    -0.00   0.00   0.00
  23   1     0.00  -0.00  -0.00    -0.00   0.00  -0.00    -0.10   0.02  -0.01
  24   1    -0.00  -0.00   0.00     0.00  -0.00   0.00     0.10   0.05  -0.13
  25   1    -0.00   0.00  -0.00    -0.00   0.00  -0.00    -0.00   0.01  -0.01
  26   1     0.00   0.00  -0.00    -0.00   0.00  -0.00    -0.88   0.33  -0.15
                     67                     68                     69
                        a                      a                      a 
 Frequencies --  3387.3060              3398.8777              3405.8210
 Red. masses --     1.5487                 1.6854                 1.7752
 Frc consts  --     0.0000                 0.0000                 0.0000
 IR Inten    --     2.7013                97.1166                38.8562
 Raman Activ --     0.0000                 0.0000                 0.0000
 Depolar     --     0.0000                 0.0000                 0.0000
 Atom AN      X      Y      Z        X      Y      Z        X      Y      Z
   1   6     0.00  -0.00  -0.00    -0.00  -0.00   0.00     0.00   0.00  -0.00
   2   6     0.00   0.00   0.00     0.00  -0.00   0.00    -0.00   0.00  -0.00
   3   6    -0.00  -0.00  -0.01     0.00   0.00   0.00    -0.00  -0.00   0.00
   4   6    -0.00  -0.00   0.00    -0.00  -0.00   0.01     0.00   0.01  -0.01
   5   8    -0.01   0.00  -0.00    -0.03   0.01  -0.01    -0.03   0.01  -0.00
   6   8    -0.05  -0.02   0.01    -0.12  -0.04   0.02     0.18   0.06  -0.02
   7   7    -0.07  -0.14  -0.11     0.01   0.02   0.02    -0.01  -0.02  -0.02
   8   6    -0.00  -0.00  -0.00    -0.00  -0.00  -0.00     0.00   0.00   0.00
   9   7    -0.00   0.00  -0.00    -0.00   0.00  -0.00    -0.00  -0.00  -0.00
  10   6     0.00  -0.00   0.00    -0.00  -0.00   0.01    -0.00  -0.00   0.00
  11   7    -0.00  -0.00   0.01    -0.05  -0.06   0.15    -0.02  -0.04   0.10
  12   7    -0.00   0.00  -0.00    -0.00   0.03  -0.01    -0.01   0.05  -0.03
  13   1     0.00   0.00  -0.00    -0.00   0.00  -0.00    -0.00  -0.00   0.00
  14   1    -0.00   0.00   0.00    -0.00   0.00   0.00    -0.00  -0.00  -0.00
  15   1    -0.00   0.00  -0.00    -0.00   0.00  -0.00     0.00  -0.00   0.00
  16   1    -0.00   0.00   0.00     0.00  -0.00  -0.00    -0.00   0.00   0.00
  17   1     0.00   0.00   0.00    -0.00  -0.00   0.00     0.00   0.00  -0.00
  18   1     0.19   0.07  -0.03     0.49   0.18  -0.09    -0.72  -0.26   0.13
  19   1     0.47  -0.17   0.11    -0.08   0.03  -0.02     0.06  -0.02   0.01
  20   1    -0.19   0.71   0.32     0.03  -0.12  -0.05    -0.03   0.10   0.05
  21   1     0.00   0.00  -0.00     0.00   0.00  -0.00    -0.00  -0.00   0.00
  22   1    -0.00   0.00   0.00    -0.00   0.00   0.00     0.00   0.00   0.00
  23   1    -0.01   0.00  -0.00    -0.26   0.05  -0.02    -0.20   0.04  -0.01
  24   1     0.03   0.01  -0.03     0.44   0.18  -0.56     0.28   0.12  -0.36
  25   1     0.00  -0.01   0.00     0.02  -0.09   0.05     0.04  -0.19   0.10
  26   1     0.04  -0.01   0.01     0.13  -0.05   0.03     0.11  -0.04   0.02
                     70                     71                     72
                        a                      a                      a 
 Frequencies --  3410.1794              3419.6074              3483.5338
 Red. masses --     1.8599                 2.0557                 2.0256
 Frc consts  --     0.0000                 0.0000                 0.0000
 IR Inten    --     8.1555                 4.6981                 5.9212
 Raman Activ --     0.0000                 0.0000                 0.0000
 Depolar     --     0.0000                 0.0000                 0.0000
 Atom AN      X      Y      Z        X      Y      Z        X      Y      Z
   1   6    -0.00   0.00   0.00    -0.00   0.00   0.00    -0.00  -0.00   0.00
   2   6    -0.00   0.00   0.00     0.00   0.00   0.00    -0.00   0.00  -0.00
   3   6    -0.00  -0.00   0.00    -0.00   0.00  -0.00    -0.00   0.00  -0.00
   4   6     0.00   0.00  -0.00     0.00  -0.00  -0.00    -0.00   0.00   0.00
   5   8    -0.01   0.00  -0.00     0.00  -0.00   0.00    -0.01   0.00  -0.00
   6   8     0.03   0.01  -0.00     0.00   0.00   0.00    -0.00  -0.00   0.00
   7   7    -0.00  -0.00  -0.00    -0.22   0.18   0.00    -0.00   0.00  -0.00
   8   6     0.00   0.00  -0.00    -0.00   0.00   0.00     0.00   0.00   0.00
   9   7    -0.00   0.00  -0.00    -0.00  -0.00   0.00    -0.00   0.00  -0.00
  10   6     0.02  -0.00   0.00     0.00   0.00  -0.00     0.01  -0.00   0.00
  11   7    -0.02  -0.01   0.04    -0.00  -0.00   0.00     0.28  -0.03  -0.04
  12   7     0.03  -0.22   0.12    -0.00   0.00  -0.00     0.00  -0.01   0.00
  13   1     0.00   0.00  -0.00     0.00   0.00  -0.00     0.00   0.00  -0.00
  14   1     0.00  -0.00  -0.00     0.00  -0.00  -0.00     0.00  -0.00   0.00
  15   1     0.00  -0.00   0.00     0.00  -0.00   0.00     0.00  -0.00   0.00
  16   1    -0.00   0.00   0.00    -0.00  -0.00  -0.00    -0.00  -0.00   0.00
  17   1     0.00   0.00  -0.00     0.00   0.00  -0.00     0.00  -0.00  -0.00
  18   1    -0.11  -0.04   0.02    -0.01  -0.00   0.00     0.02   0.01  -0.00
  19   1     0.01  -0.00   0.00     0.75  -0.23   0.22     0.00  -0.00   0.00
  20   1    -0.00   0.01   0.01     0.09  -0.45  -0.23     0.00  -0.00  -0.00
  21   1    -0.00   0.00   0.00    -0.00  -0.00   0.00     0.00   0.00  -0.00
  22   1     0.00   0.00  -0.00     0.00  -0.00  -0.00    -0.00   0.00   0.00
  23   1    -0.04   0.01  -0.00    -0.00   0.00   0.00    -0.87   0.18  -0.12
  24   1     0.12   0.05  -0.16     0.00   0.00  -0.00    -0.17  -0.08   0.26
  25   1    -0.17   0.81  -0.43     0.00  -0.00   0.00    -0.01   0.03  -0.02
  26   1     0.05  -0.02   0.01    -0.00   0.00  -0.00     0.03  -0.01   0.00
