      -----------------------------------------------------------      
     |                   =====================                   |     
     |                           x T B                           |     
     |                   =====================                   |     
     |                         S. Grimme                         |     
     |          Mulliken Center for Theoretical Chemistry        |     
     |                    University of Bonn                     |     
      -----------------------------------------------------------      

   * xtb version 6.6.0 (8843059) compiled by 'stahn@majestix' on 2023-02-09

   xtb is free software: you can redistribute it and/or modify it under
   the terms of the GNU Lesser General Public License as published by
   the Free Software Foundation, either version 3 of the License, or
   (at your option) any later version.
   
   xtb is distributed in the hope that it will be useful,
   but WITHOUT ANY WARRANTY; without even the implied warranty of
   MERCHANTABILITY or FITNESS FOR A PARTICULAR PURPOSE.  See the
   GNU Lesser General Public License for more details.
   
   Cite this work as:
   * C. Bannwarth, E. Caldeweyher, S. Ehlert, A. Hansen, P. Pracht,
     J. Seibert, S. Spicher, S. Grimme, WIREs Comput. Mol. Sci., 2020, 11,
     e01493. DOI: 10.1002/wcms.1493
   
   for GFN2-xTB:
   * C. Bannwarth, S. Ehlert and S. Grimme., J. Chem. Theory Comput., 2019,
     15, 1652-1671. DOI: 10.1021/acs.jctc.8b01176
   for GFN1-xTB:
   * S. Grimme, C. Bannwarth, P. Shushkov, J. Chem. Theory Comput., 2017,
     13, 1989-2009. DOI: 10.1021/acs.jctc.7b00118
   for GFN0-xTB:
   * P. Pracht, E. Caldeweyher, S. Ehlert, S. Grimme, ChemRxiv, 2019, preprint.
     DOI: 10.26434/chemrxiv.8326202.v1
   for GFN-FF:
   * S. Spicher and S. Grimme, Angew. Chem. Int. Ed., 2020, 59, 15665-15673.
     DOI: 10.1002/anie.202004239
   
   for ALPB and GBSA implicit solvation:
   * S. Ehlert, M. Stahn, S. Spicher, S. Grimme, J. Chem. Theory Comput.,
     2021, 17, 4250-4261. DOI: 10.1021/acs.jctc.1c00471
   
   for DFT-D4:
   * E. Caldeweyher, C. Bannwarth and S. Grimme, J. Chem. Phys., 2017,
     147, 034112. DOI: 10.1063/1.4993215
   * E. Caldeweyher, S. Ehlert, A. Hansen, H. Neugebauer, S. Spicher,
     C. Bannwarth and S. Grimme, J. Chem. Phys., 2019, 150, 154122.
     DOI: 10.1063/1.5090222
   * E. Caldeweyher, J.-M. Mewes, S. Ehlert and S. Grimme, Phys. Chem. Chem. Phys.
     2020, 22, 8499-8512. DOI: 10.1039/D0CP00502A
   
   for sTDA-xTB:
   * S. Grimme and C. Bannwarth, J. Chem. Phys., 2016, 145, 054103.
     DOI: 10.1063/1.4959605
   
   in the mass-spec context:
   * V. Asgeirsson, C. Bauer and S. Grimme, Chem. Sci., 2017, 8, 4879.
     DOI: 10.1039/c7sc00601b
   * J. Koopman and S. Grimme, ACS Omega 2019, 4, 12, 15120-15133.
     DOI: 10.1021/acsomega.9b02011
   
   for metadynamics refer to:
   * S. Grimme, J. Chem. Theory Comput., 2019, 155, 2847-2862
     DOI: 10.1021/acs.jctc.9b00143
   
   for SPH calculations refer to:
   * S. Spicher and S. Grimme, J. Chem. Theory Comput., 2021, 17, 1701-1714
     DOI: 10.1021/acs.jctc.0c01306
   
   with help from (in alphabetical order)
   P. Atkinson, C. Bannwarth, F. Bohle, G. Brandenburg, E. Caldeweyher
   M. Checinski, S. Dohm, S. Ehlert, S. Ehrlich, I. Gerasimov, C. Hölzer
   A. Katbashev, J. Koopman, C. Lavigne, S. Lehtola, F. März, M. Müller,
   F. Musil, H. Neugebauer, J. Pisarek, C. Plett, P. Pracht, F. Pultar,
   J. Seibert, P. Shushkov, S. Spicher, M. Stahn, M. Steiner, T. Strunk,
   J. Stückrath, T. Rose, and J. Unsleber
   
 * started run on 2025/07/30 at 12:34:48.909     

           -------------------------------------------------
          |                Calculation Setup                |
           -------------------------------------------------

          program call               : xtb --gfn2 in.xyz --ohess vtight
          coordinate file            : in.xyz
          omp threads                :                     8

   ID    Z sym.   atoms
    1    6 C      1-4, 8, 10
    2    8 O      5, 6
    3    7 N      7, 9, 11, 12
    4    1 H      13-26

           -------------------------------------------------
          |                 G F N 2 - x T B                 |
           -------------------------------------------------

        Reference                      10.1021/acs.jctc.8b01176
      * Hamiltonian:
        H0-scaling (s, p, d)           1.850000    2.230000    2.230000
        zeta-weighting                 0.500000
      * Dispersion:
        s8                             2.700000
        a1                             0.520000
        a2                             5.000000
        s9                             5.000000
      * Repulsion:
        kExp                           1.500000    1.000000
        rExp                           1.000000
      * Coulomb:
        alpha                          2.000000
        third order                    shell-resolved
        anisotropic                    true
        a3                             3.000000
        a5                             4.000000
        cn-shift                       1.200000
        cn-exp                         4.000000
        max-rad                        5.000000


          ...................................................
          :                      SETUP                      :
          :.................................................:
          :  # basis functions                  62          :
          :  # atomic orbitals                  62          :
          :  # shells                           38          :
          :  # electrons                        70          :
          :  max. iterations                   250          :
          :  Hamiltonian                  GFN2-xTB          :
          :  restarted?                      false          :
          :  GBSA solvation                  false          :
          :  PC potential                    false          :
          :  electronic temp.          300.0000000     K    :
          :  accuracy                    1.0000000          :
          :  -> integral cutoff          0.2500000E+02      :
          :  -> integral neglect         0.1000000E-07      :
          :  -> SCF convergence          0.1000000E-05 Eh   :
          :  -> wf. convergence          0.1000000E-03 e    :
          :  Broyden damping             0.4000000          :
          ...................................................

 iter      E             dE          RMSdq      gap      omega  full diag
   1    -40.1948193 -0.401948E+02  0.371E+00    4.79       0.0  T
   2    -40.2424592 -0.476399E-01  0.211E+00    5.17       1.0  T
   3    -40.2443886 -0.192944E-02  0.768E-01    4.88       1.0  T
   4    -40.2454488 -0.106015E-02  0.194E-01    4.97       1.0  T
   5    -40.2457607 -0.311938E-03  0.708E-02    4.93       1.0  T
   6    -40.2457963 -0.356011E-04  0.323E-02    4.95       1.0  T
   7    -40.2457974 -0.111861E-05  0.134E-02    4.95       1.5  T
   8    -40.2457994 -0.193327E-05  0.305E-03    4.95       6.4  T
   9    -40.2457994 -0.247603E-07  0.122E-03    4.95      16.1  T
  10    -40.2457994 -0.157718E-08  0.385E-04    4.95      50.9  T
  11    -40.2457994 -0.393044E-09  0.991E-05    4.95     198.0  T

   *** convergence criteria satisfied after 11 iterations ***

         #    Occupation            Energy/Eh            Energy/eV
      -------------------------------------------------------------
         1        2.0000           -0.7067575             -19.2319
       ...           ...                  ...                  ...
        29        2.0000           -0.4408182             -11.9953
        30        2.0000           -0.4365523             -11.8792
        31        2.0000           -0.4286407             -11.6639
        32        2.0000           -0.3935030             -10.7078
        33        2.0000           -0.3883811             -10.5684
        34        2.0000           -0.3712733             -10.1029
        35        2.0000           -0.3692880             -10.0488 (HOMO)
        36                         -0.1873619              -5.0984 (LUMO)
        37                         -0.0020927              -0.0569
        38                          0.0122264               0.3327
        39                          0.0448437               1.2203
        40                          0.0486916               1.3250
       ...                                ...                  ...
        62                          0.5987444              16.2927
      -------------------------------------------------------------
                  HL-Gap            0.1819261 Eh            4.9505 eV
             Fermi-level           -0.2783249 Eh           -7.5736 eV

 SCC (total)                   0 d,  0 h,  0 min,  0.023 sec
 SCC setup                      ...        0 min,  0.000 sec (  1.209%)
 Dispersion                     ...        0 min,  0.000 sec (  1.196%)
 classical contributions        ...        0 min,  0.000 sec (  0.161%)
 integral evaluation            ...        0 min,  0.002 sec (  7.695%)
 iterations                     ...        0 min,  0.016 sec ( 68.139%)
 molecular gradient             ...        0 min,  0.005 sec ( 20.695%)
 printout                       ...        0 min,  0.000 sec (  0.761%)

         :::::::::::::::::::::::::::::::::::::::::::::::::::::
         ::                     SUMMARY                     ::
         :::::::::::::::::::::::::::::::::::::::::::::::::::::
         :: total energy             -39.828429726763 Eh    ::
         :: gradient norm              0.000042904110 Eh/a0 ::
         :: HOMO-LUMO gap              4.950462368493 eV    ::
         ::.................................................::
         :: SCC energy               -40.245799403035 Eh    ::
         :: -> isotropic ES            0.099200966311 Eh    ::
         :: -> anisotropic ES         -0.006998460012 Eh    ::
         :: -> anisotropic XC          0.017158343184 Eh    ::
         :: -> dispersion             -0.023255231914 Eh    ::
         :: repulsion energy           0.417154140367 Eh    ::
         :: add. restraining           0.000000000000 Eh    ::
         :: total charge              -0.000000000000 e     ::
         :::::::::::::::::::::::::::::::::::::::::::::::::::::

      ----------------------------------------------------------- 
     |                   =====================                   |
     |                        A N C O P T                        |
     |                   =====================                   |
     |               Approximate Normal Coordinate               |
     |                Rational Function Optimizer                |
      ----------------------------------------------------------- 

          ...................................................
          :                      SETUP                      :
          :.................................................:
          :   optimization level         verytight          :
          :   max. optcycles                   520          :
          :   ANC micro-cycles                  20          :
          :   degrees of freedom                72          :
          :.................................................:
          :   RF solver                   davidson          :
          :   write xtbopt.log                true          :
          :   linear?                        false          :
          :   energy convergence         0.1000000E-06 Eh   :
          :   grad. convergence          0.2000000E-03 Eh/α :
          :   maxmium RF displ.          1.0000000          :
          :   Hlow (freq-cutoff)         0.1000000E-01      :
          :   Hmax (freq-cutoff)         5.0000000          :
          :   S6 in model hess.         20.0000000          :
          ...................................................

generating ANC from model Hessian ...
Using Lindh-Hessian (1995)
 Shifting diagonal of input Hessian by   6.872746614592060E-003
 Lowest  eigenvalues of input Hessian
    0.000000    0.000000    0.000000    0.000000    0.000000    0.000000
    0.010000    0.010393    0.013176    0.014453    0.017303    0.021260
    0.022570    0.024200    0.026235    0.027216    0.029567    0.032872
 Highest eigenvalues
    1.443446    1.497049    1.576608    1.648180    1.958516    2.243647
 

........................................................................
.............................. CYCLE    1 ..............................
........................................................................

 iter      E             dE          RMSdq      gap      omega  full diag
   1    -40.2457994 -0.402458E+02  0.476E-05    4.95       0.0  T
   2    -40.2457994 -0.400746E-11  0.285E-05    4.95     688.4  T
   3    -40.2457994 -0.561329E-12  0.962E-06    4.95    2039.5  T
     SCC iter.                  ...        0 min,  0.003 sec
     gradient                   ...        0 min,  0.004 sec
 * total energy  :   -39.8284297 Eh     change       -0.3049649E-10 Eh
   gradient norm :     0.0000434 Eh/α   predicted     0.0000000E+00 (-100.00%)
   displ. norm   :     0.0000651 α      lambda        0.0000000E+00
   maximum displ.:     0.0000335 α      in ANC's #71, #53, #56, ...

   *** GEOMETRY OPTIMIZATION CONVERGED AFTER 1 ITERATIONS ***

------------------------------------------------------------------------
 total energy gain   :        -0.0000000 Eh       -0.0000 kcal/mol
 total RMSD          :         0.0000000 a0        0.0000 Å
 total power (kW/mol):        -0.0000001 (step)   -0.0000 (real)
------------------------------------------------------------------------

 ANCopt (total)                0 d,  0 h,  0 min,  0.044 sec
 optimizer setup                ...        0 min,  0.000 sec (  0.372%)
 model hessian                  ...        0 min,  0.033 sec ( 75.557%)
 ANC generation                 ...        0 min,  0.001 sec (  3.043%)
 coordinate transformation      ...        0 min,  0.000 sec (  0.030%)
 single point calculation       ...        0 min,  0.009 sec ( 20.265%)
 optimization log               ...        0 min,  0.000 sec (  0.340%)
 hessian update                 ...        0 min,  0.000 sec (  0.005%)
 rational function              ...        0 min,  0.000 sec (  0.107%)

================
 final structure:
================
26
 xtb: 6.6.0 (8843059)
C           -0.89427300000000        2.27053600000000       -0.21889200000000
C           -2.03721100000000        1.31350400000000        0.08838400000000
C           -1.71742700000000       -0.05090800000000       -0.50987700000000
C           -0.34857000000000       -0.59393500000000       -0.03042000000000
O           -0.09847600000000       -1.68454700000000       -0.85911800000000
O           -0.43987600000000       -0.99904400000000        1.31713100000000
N           -2.70087600000000       -1.03682100000000       -0.07795000000000
C            0.38557300000000        1.71020300000000        0.38265700000000
N            0.69251200000000        0.39851800000000       -0.17194400000000
C            2.03306300000000       -0.01139500000000       -0.06042600000000
N            2.23662300000000       -1.28864900000000        0.43434600000000
N            3.03909000000000        0.64945400000000       -0.44800400000000
H           -0.77720600000000        2.37214800000000       -1.29921400000000
H           -1.09204400000000        3.25525500000000        0.20589900000000
H           -2.97773900000000        1.68045400000000       -0.32662700000000
H           -2.15645300000000        1.20708200000000        1.16854900000000
H           -1.64162000000000        0.03741500000000       -1.60549800000000
H           -1.34989200000000       -1.31273800000000        1.44396100000000
H           -3.63123500000000       -0.75087000000000       -0.36221200000000
H           -2.49405200000000       -1.92438600000000       -0.52645900000000
H            1.23033200000000        2.36909000000000        0.17469900000000
H            0.26895500000000        1.63392700000000        1.47465800000000
H            3.21780000000000       -1.47967400000000        0.57592600000000
H            1.64281400000000       -1.53091900000000        1.21807400000000
H            2.82669300000000        1.52649200000000       -0.90790200000000
H            0.80510100000000       -2.00113200000000       -0.68789400000000
 
 Bond Distances (Angstroems)
 ---------------------------
C1-C2=1.5221         C1-C8=1.5211         C1-H13=1.0914        C1-H14=1.0905        C2-C1=1.5221         C2-C3=1.5237         
C2-H15=1.0915        C2-H16=1.0919        C3-C2=1.5237         C3-C4=1.5487         C3-N7=1.4580         C3-H17=1.1018        
C4-C3=1.5487         C4-O5=1.3924         C4-O6=1.4101         C4-N9=1.4453         O5-C4=1.3924         O5-H26=0.9726        
O6-C4=1.4101         O6-H18=0.9709        N7-C3=1.4580         N7-H19=1.0140        N7-H20=1.0157        C8-C1=1.5211         
C8-N9=1.4568         C8-H21=1.0913        C8-H22=1.1009        N9-C4=1.4453         N9-C8=1.4568         N9-C10=1.4063        
C10-N9=1.4063        C10-N11=1.3848       C10-N12=1.2645       N11-C10=1.3848       N11-H23=1.0096       N11-H24=1.0127       
N12-C10=1.2645       N12-H25=1.0128       H13-C1=1.0914        H14-C1=1.0905        H15-C2=1.0915        H16-C2=1.0919        
H17-C3=1.1018        H18-O6=0.9709        H19-N7=1.0140        H20-N7=1.0157        H21-C8=1.0913        H22-C8=1.1009        
H23-N11=1.0096       H24-N11=1.0127       H25-N12=1.0128       H26-O5=0.9726        
 C  H  Rav=1.0942 sigma=0.0045  Rmin=1.0905  Rmax=1.1018     7
 C  C  Rav=1.5289 sigma=0.0115  Rmin=1.5211  Rmax=1.5487     4
 N  H  Rav=1.0130 sigma=0.0020  Rmin=1.0096  Rmax=1.0157     5
 N  C  Rav=1.4026 sigma=0.0674  Rmin=1.2645  Rmax=1.4580     6
 O  H  Rav=0.9718 sigma=0.0009  Rmin=0.9709  Rmax=0.9726     2
 O  C  Rav=1.4012 sigma=0.0089  Rmin=1.3924  Rmax=1.4101     2
 
 selected bond angles (degree)
 --------------------
C8-C1-C2=108.68                H13-C1-C2=109.81               H13-C1-C8=109.60               H14-C1-C2=110.67               
H14-C1-C8=109.34               H14-C1-H13=108.72              C3-C2-C1=109.04                H15-C2-C1=111.03               
H15-C2-C3=109.43               H16-C2-C1=110.06               H16-C2-C3=108.91               H16-C2-H15=108.35              
C4-C3-C2=112.20                N7-C3-C2=110.34                N7-C3-C4=105.51                H17-C3-C2=109.46               
H17-C3-C4=105.97               H17-C3-N7=113.28               O5-C4-C3=104.43                O6-C4-C3=109.84                
O6-C4-O5=110.82                N9-C4-C3=111.44                N9-C4-O5=110.50                N9-C4-O6=109.72                
H26-O5-C4=108.48               H18-O6-C4=106.16               H19-N7-C3=110.19               H20-N7-C3=108.83               
H20-N7-H19=108.03              N9-C8-C1=111.00                H21-C8-C1=110.70               H21-C8-N9=107.94               
H22-C8-C1=109.19               H22-C8-N9=109.73               H22-C8-H21=108.23              C8-N9-C4=115.42                
C10-N9-C4=118.60               C10-N9-C8=115.67               N11-C10-N9=115.93              N12-C10-N9=125.57              
N12-C10-N11=118.33             
 
 selected dihedral angles (degree)
 ---------------------------------
C3-C2-C1-C8=300.59            C3-C2-C1-H13= 60.47           C3-C2-C1-H14=180.51           H15-C2-C1-C8=179.95           
H15-C2-C1-H13=299.83          H15-C2-C1-H14= 59.87          H16-C2-C1-C8= 59.99           H16-C2-C1-H13=179.87          
H16-C2-C1-H14=299.91          C4-C3-C2-C1= 54.84            C4-C3-C2-H15=176.46           C4-C3-C2-H16=294.73           
N7-C3-C2-C1=172.18            N7-C3-C2-H15=293.80           N7-C3-C2-H16= 52.07           H17-C3-C2-C1=297.49           
H17-C3-C2-H15= 59.11          H17-C3-C2-H16=177.38          O5-C4-C3-C2=191.52            O5-C4-C3-N7= 71.33            
O5-C4-C3-H17=310.93           O6-C4-C3-C2= 72.64            O6-C4-C3-N7=312.45            O6-C4-C3-H17=192.05           
N9-C4-C3-C2=310.83            N9-C4-C3-N7=190.64            N9-C4-C3-H17= 70.24           H26-O5-C4-C3=172.55           
H26-O5-C4-O6=290.76           H26-O5-C4-N9= 52.61           H18-O6-C4-C3= 31.64           H18-O6-C4-O5=276.77           
H18-O6-C4-N9=154.48           H19-N7-C3-C2= 58.87           H19-N7-C3-C4=180.28           H19-N7-C3-H17=295.76          
H20-N7-C3-C2=177.15           H20-N7-C3-C4=298.55           H20-N7-C3-H17= 54.04          N9-C8-C1-C2= 59.72            
N9-C8-C1-H13=299.71           N9-C8-C1-H14=180.62           H21-C8-C1-C2=179.57           H21-C8-C1-H13= 59.56          
H21-C8-C1-H14=300.48          H22-C8-C1-C2=298.63           H22-C8-C1-H13=178.61          H22-C8-C1-H14= 59.53          
C8-N9-C4-C3= 49.95            C8-N9-C4-O5=165.58            C8-N9-C4-O6=288.07            C10-N9-C4-C3=193.59           
C10-N9-C4-O5=309.22           C10-N9-C4-O6= 71.71           C4-N9-C8-C1=303.73            C4-N9-C8-H21=182.25           
C4-N9-C8-H22= 64.51           C10-N9-C8-C1=159.00           C10-N9-C8-H21= 37.52          C10-N9-C8-H22=279.78          
N11-C10-N9-C4=347.84          N11-C10-N9-C8=131.40          N12-C10-N9-C4=163.15          N12-C10-N9-C8=306.71          
           -------------------------------------------------
          |                Final Singlepoint                |
           -------------------------------------------------

          ...................................................
          :                      SETUP                      :
          :.................................................:
          :  # basis functions                  62          :
          :  # atomic orbitals                  62          :
          :  # shells                           38          :
          :  # electrons                        70          :
          :  max. iterations                   250          :
          :  Hamiltonian                  GFN2-xTB          :
          :  restarted?                      false          :
          :  GBSA solvation                  false          :
          :  PC potential                    false          :
          :  electronic temp.          300.0000000     K    :
          :  accuracy                    1.0000000          :
          :  -> integral cutoff          0.2500000E+02      :
          :  -> integral neglect         0.1000000E-07      :
          :  -> SCF convergence          0.1000000E-05 Eh   :
          :  -> wf. convergence          0.1000000E-03 e    :
          :  Broyden damping             0.4000000          :
          ...................................................

 iter      E             dE          RMSdq      gap      omega  full diag
   1    -40.2457994 -0.402458E+02  0.330E-06    4.95       0.0  T
   2    -40.2457994 -0.994760E-13  0.194E-06    4.95   10098.5  T
   3    -40.2457994  0.426326E-13  0.120E-06    4.95   16327.3  T

   *** convergence criteria satisfied after 3 iterations ***

         #    Occupation            Energy/Eh            Energy/eV
      -------------------------------------------------------------
         1        2.0000           -0.7067573             -19.2318
       ...           ...                  ...                  ...
        29        2.0000           -0.4408184             -11.9953
        30        2.0000           -0.4365523             -11.8792
        31        2.0000           -0.4286407             -11.6639
        32        2.0000           -0.3935024             -10.7077
        33        2.0000           -0.3883814             -10.5684
        34        2.0000           -0.3712729             -10.1028
        35        2.0000           -0.3692877             -10.0488 (HOMO)
        36                         -0.1873613              -5.0984 (LUMO)
        37                         -0.0020926              -0.0569
        38                          0.0122267               0.3327
        39                          0.0448440               1.2203
        40                          0.0486917               1.3250
       ...                                ...                  ...
        62                          0.5987450              16.2927
      -------------------------------------------------------------
                  HL-Gap            0.1819264 Eh            4.9505 eV
             Fermi-level           -0.2783245 Eh           -7.5736 eV

 SCC (total)                   0 d,  0 h,  0 min,  0.009 sec
 SCC setup                      ...        0 min,  0.000 sec (  1.339%)
 Dispersion                     ...        0 min,  0.000 sec (  1.259%)
 classical contributions        ...        0 min,  0.000 sec (  0.223%)
 integral evaluation            ...        0 min,  0.001 sec ( 14.286%)
 iterations                     ...        0 min,  0.003 sec ( 36.996%)
 molecular gradient             ...        0 min,  0.004 sec ( 44.204%)
 printout                       ...        0 min,  0.000 sec (  1.416%)

         :::::::::::::::::::::::::::::::::::::::::::::::::::::
         ::                     SUMMARY                     ::
         :::::::::::::::::::::::::::::::::::::::::::::::::::::
         :: total energy             -39.828429726794 Eh    ::
         :: gradient norm              0.000043400521 Eh/a0 ::
         :: HOMO-LUMO gap              4.950468029537 eV    ::
         ::.................................................::
         :: SCC energy               -40.245799403066 Eh    ::
         :: -> isotropic ES            0.099201568417 Eh    ::
         :: -> anisotropic ES         -0.006998361445 Eh    ::
         :: -> anisotropic XC          0.017158373553 Eh    ::
         :: -> dispersion             -0.023255233252 Eh    ::
         :: repulsion energy           0.417154140367 Eh    ::
         :: add. restraining           0.000000000000 Eh    ::
         :: total charge              -0.000000000000 e     ::
         :::::::::::::::::::::::::::::::::::::::::::::::::::::

           ------------------------------------------------- 
          |                Numerical Hessian                |
           ------------------------------------------------- 
step length          :   0.00500
SCC accuracy         :   0.30000
Hessian scale factor :   1.00000
frozen atoms in %    :   0.00000    0
RMS gradient         :   0.00004
estimated CPU  time      0.91 min
estimated wall time      0.12 min

writing file <hessian>.

 projected vibrational frequencies (cm⁻¹)
eigval :       -0.00    -0.00    -0.00     0.00     0.00     0.00
eigval :       74.51   105.25   126.69   169.49   204.87   270.45
eigval :      290.38   306.56   324.23   332.15   378.23   400.14
eigval :      422.22   439.03   457.74   496.39   519.19   532.61
eigval :      552.40   586.11   619.22   646.98   752.20   775.62
eigval :      813.36   865.34   890.41   910.85   954.70   983.26
eigval :     1000.59  1020.80  1047.90  1082.73  1088.65  1101.06
eigval :     1110.65  1120.24  1142.76  1157.15  1187.66  1203.62
eigval :     1223.10  1227.37  1259.35  1289.01  1305.09  1331.45
eigval :     1336.00  1350.91  1355.83  1362.79  1466.44  1467.38
eigval :     1471.48  1487.22  1540.12  1713.26  2851.65  2863.17
eigval :     2972.70  2980.20  2982.91  2992.00  2995.58  3359.32
eigval :     3387.31  3398.88  3405.82  3410.18  3419.61  3483.53
           -------------------------------------------------
          |                Property Printout                |
           -------------------------------------------------

    * Orbital Energies and Occupations

         #    Occupation            Energy/Eh            Energy/eV
      -------------------------------------------------------------
         1        2.0000           -0.7067573             -19.2318
       ...           ...                  ...                  ...
        23        2.0000           -0.4867424             -13.2449
        24        2.0000           -0.4827547             -13.1364
        25        2.0000           -0.4721251             -12.8472
        26        2.0000           -0.4695135             -12.7761
        27        2.0000           -0.4567710             -12.4294
        28        2.0000           -0.4512991             -12.2805
        29        2.0000           -0.4408184             -11.9953
        30        2.0000           -0.4365523             -11.8792
        31        2.0000           -0.4286407             -11.6639
        32        2.0000           -0.3935024             -10.7077
        33        2.0000           -0.3883814             -10.5684
        34        2.0000           -0.3712728             -10.1028
        35        2.0000           -0.3692877             -10.0488 (HOMO)
        36                         -0.1873613              -5.0984 (LUMO)
        37                         -0.0020926              -0.0569
        38                          0.0122267               0.3327
        39                          0.0448440               1.2203
        40                          0.0486917               1.3250
        41                          0.0566551               1.5417
        42                          0.0742948               2.0217
        43                          0.0899708               2.4482
        44                          0.1100765               2.9953
        45                          0.1143937               3.1128
        46                          0.1210616               3.2943
       ...                                ...                  ...
        62                          0.5987450              16.2927
      -------------------------------------------------------------
                  HL-Gap            0.1819263 Eh            4.9505 eV
             Fermi-level           -0.2783245 Eh           -7.5736 eV

     #   Z          covCN         q      C6AA      α(0)
     1   6 C        3.807    -0.067    21.786     6.644
     2   6 C        3.810    -0.068    21.792     6.645
     3   6 C        3.787     0.043    19.873     6.349
     4   6 C        3.606     0.330    16.135     5.804
     5   8 O        1.658    -0.473    22.325     6.378
     6   8 O        1.655    -0.487    22.618     6.420
     7   7 N        2.636    -0.357    29.197     8.025
     8   6 C        3.756     0.018    20.320     6.427
     9   7 N        2.737    -0.209    25.542     7.506
    10   6 C        2.749     0.237    23.043     7.860
    11   7 N        2.650    -0.313    28.061     7.867
    12   7 N        1.790    -0.408    31.568     8.322
    13   1 H        0.924     0.048     2.349     2.397
    14   1 H        0.924     0.045     2.377     2.411
    15   1 H        0.924     0.039     2.468     2.457
    16   1 H        0.924     0.052     2.295     2.369
    17   1 H        0.923     0.023     2.692     2.566
    18   1 H        0.804     0.321     0.661     1.278
    19   1 H        0.860     0.148     1.418     1.865
    20   1 H        0.860     0.161     1.330     1.807
    21   1 H        0.924     0.049     2.335     2.390
    22   1 H        0.923     0.032     2.557     2.501
    23   1 H        0.860     0.186     1.181     1.702
    24   1 H        0.860     0.195     1.130     1.665
    25   1 H        0.860     0.135     1.507     1.923
    26   1 H        0.804     0.322     0.658     1.274

 Mol. C6AA /au·bohr⁶  :       5790.411441
 Mol. C8AA /au·bohr⁸  :     123715.508321
 Mol. α(0) /au        :        112.853680


Wiberg/Mayer (AO) data.
largest (>0.10) Wiberg bond orders for each atom

 ---------------------------------------------------------------------------
     #   Z sym  total        # sym  WBO       # sym  WBO       # sym  WBO
 ---------------------------------------------------------------------------
     1   6 C    3.997 --     2 C    1.008     8 C    1.006    13 H    0.976
                            14 H    0.975
     2   6 C    3.996 --     1 C    1.008     3 C    0.997    15 H    0.975
                            16 H    0.974
     3   6 C    3.985 --     7 N    1.014     2 C    0.997    17 H    0.960
                             4 C    0.944
     4   6 C    3.933 --     5 O    0.994     9 N    0.973     6 O    0.962
                             3 C    0.944
     5   8 O    1.970 --     4 C    0.994    26 H    0.843
     6   8 O    1.963 --     4 C    0.962    18 H    0.857
     7   7 N    3.019 --     3 C    1.014    19 H    0.962    20 H    0.958
     8   6 C    3.976 --     1 C    1.006     9 N    0.978    22 H    0.967
                            21 H    0.967
     9   7 N    3.282 --    10 C    1.056     8 C    0.978     4 C    0.973
                            12 N    0.117
    10   6 C    3.961 --    12 N    1.729    11 N    1.134     9 N    1.056
    11   7 N    3.241 --    10 C    1.134    23 H    0.946    24 H    0.928
                            12 N    0.113
    12   7 N    2.971 --    10 C    1.729    25 H    0.948     9 N    0.117
                            11 N    0.113
    13   1 H    0.998 --     1 C    0.976
    14   1 H    0.997 --     1 C    0.975
    15   1 H    0.998 --     2 C    0.975
    16   1 H    0.997 --     2 C    0.974
    17   1 H    0.999 --     3 C    0.960
    18   1 H    0.897 --     6 O    0.857
    19   1 H    0.978 --     7 N    0.962
    20   1 H    0.974 --     7 N    0.958
    21   1 H    0.998 --     8 C    0.967
    22   1 H    0.999 --     8 C    0.967
    23   1 H    0.965 --    11 N    0.946
    24   1 H    0.962 --    11 N    0.928
    25   1 H    0.982 --    12 N    0.948
    26   1 H    0.896 --     5 O    0.843
 ---------------------------------------------------------------------------

Topologies differ in total number of bonds
Writing topology from bond orders to xtbtopo.mol

molecular dipole:
                 x           y           z       tot (Debye)
 q only:       -0.860       0.001       0.352
   full:       -1.246       0.116       0.338       3.295
molecular quadrupole (traceless):
                xx          xy          yy          xz          yz          zz
 q only:       -1.024      -4.544       4.420       2.545      -1.927      -3.396
  q+dip:       -2.845      -4.281       4.336       6.221      -2.690      -1.491
   full:       -2.931      -4.289       4.958       6.195      -2.302      -2.027

           -------------------------------------------------
          |                Geometry Summary                 |
           -------------------------------------------------

      molecular mass/u    :      174.2012086
   center of mass at/Å    :        0.0000025      -0.0000060       0.0000006
  moments of inertia/u·Å² :        0.3402363E+03   0.5873222E+03   0.7985408E+03
rotational constants/cm⁻¹ :        0.4954683E-01   0.2870253E-01   0.2111055E-01

 * 24 selected distances

     #   Z          #   Z                                           value/Å
     1   6 C        2   6 C                                       1.5220501
     2   6 C        3   6 C                                       1.5237449 (max)
     4   6 C        5   8 O                                       1.3923801
     4   6 C        6   8 O                                       1.4100866
     3   6 C        7   7 N                                       1.4579978
     1   6 C        8   6 C                                       1.5211313
     4   6 C        9   7 N                                       1.4452834
     8   6 C        9   7 N                                       1.4568156
     9   7 N       10   6 C                                       1.4062511
    10   6 C       11   7 N                                       1.3847795
    10   6 C       12   7 N                                       1.2645271
     1   6 C       13   1 H                                       1.0913870
     1   6 C       14   1 H                                       1.0905194
     2   6 C       15   1 H                                       1.0915492
     2   6 C       16   1 H                                       1.0919253
     3   6 C       17   1 H                                       1.1017864
     6   8 O       18   1 H                                       0.9708857 (min)
     7   7 N       19   1 H                                       1.0139728
     7   7 N       20   1 H                                       1.0157304
     8   6 C       21   1 H                                       1.0913279
     8   6 C       22   1 H                                       1.1008561
    11   7 N       23   1 H                                       1.0095761
    11   7 N       24   1 H                                       1.0126864
     5   8 O       26   1 H                                       0.9726229

 * 6 distinct bonds (by element types)

   Z      Z             #   av. dist./Å        max./Å        min./Å
   1 H    6 C           7     1.0941930     1.1017864     1.0905194
   6 C    6 C           3     1.5223088     1.5237449     1.5211313
   1 H    7 N           4     1.0129914     1.0157304     1.0095761
   6 C    7 N           6     1.4026091     1.4579978     1.2645271
   1 H    8 O           2     0.9717543     0.9726229     0.9708857
   6 C    8 O           2     1.4012333     1.4100866     1.3923801

           -------------------------------------------------
          |               Frequency Printout                |
           -------------------------------------------------
 projected vibrational frequencies (cm⁻¹)
eigval :       -0.00    -0.00    -0.00     0.00     0.00     0.00
eigval :       74.51   105.25   126.69   169.49   204.87   270.45
eigval :      290.38   306.56   324.23   332.15   378.23   400.14
eigval :      422.22   439.03   457.74   496.39   519.19   532.61
eigval :      552.40   586.11   619.22   646.98   752.20   775.62
eigval :      813.36   865.34   890.41   910.85   954.70   983.26
eigval :     1000.59  1020.80  1047.90  1082.73  1088.65  1101.06
eigval :     1110.65  1120.24  1142.76  1157.15  1187.66  1203.62
eigval :     1223.10  1227.37  1259.35  1289.01  1305.09  1331.45
eigval :     1336.00  1350.91  1355.83  1362.79  1466.44  1467.38
eigval :     1471.48  1487.22  1540.12  1713.26  2851.65  2863.17
eigval :     2972.70  2980.20  2982.91  2992.00  2995.58  3359.32
eigval :     3387.31  3398.88  3405.82  3410.18  3419.61  3483.53
 reduced masses (amu)
   1: 12.51   2: 11.66   3: 12.06   4: 12.05   5: 11.74   6: 12.70   7: 11.65   8: 10.30
   9: 12.02  10: 10.88  11: 11.83  12: 10.97  13:  9.20  14:  6.26  15: 10.05  16:  9.15
  17: 11.09  18: 10.32  19:  4.78  20:  9.60  21:  6.58  22:  7.95  23:  8.17  24:  6.76
  25:  8.55  26: 10.87  27:  9.41  28:  8.80  29: 10.82  30:  5.71  31:  3.28  32:  9.12
  33:  5.48  34:  6.43  35:  8.69  36:  5.57  37:  7.88  38:  6.74  39:  6.21  40:  6.21
  41:  9.21  42:  6.69  43:  7.42  44:  9.94  45:  5.37  46:  7.87  47:  7.09  48:  4.29
  49:  7.84  50:  4.36  51:  4.20  52:  3.72  53:  5.36  54:  6.27  55:  5.10  56:  5.80
  57:  5.09  58:  8.12  59:  3.34  60:  2.19  61:  2.00  62:  2.03  63:  2.13  64: 12.25
  65:  1.72  66:  1.74  67:  1.93  68:  1.68  69:  1.69  70:  1.83  71:  1.53  72:  1.85
  73:  1.55  74:  1.69  75:  1.78  76:  1.86  77:  2.06  78:  2.03
 IR intensities (km·mol⁻¹)
   1:  0.16   2:  0.51   3:  0.61   4:  0.01   5:  0.07   6:  0.13   7:  4.76   8:  1.88
   9:  7.92  10:  2.70  11:  0.57  12: 11.98  13:  6.80  14:  1.81  15:  3.36  16: 11.87
  17:  3.75  18:  5.72  19: 25.71  20: 11.67  21: 51.23  22: 52.01  23: 61.63  24: 33.05
  25: 24.75  26:  2.00  27: 21.77  28:107.71  29: 40.20  30:285.11  31: 32.53  32: 21.00
  33: 22.75  34: 16.26  35: 66.05  36:229.34  37: 30.98  38: 19.61  39:111.01  40: 11.97
  41: 64.83  42: 98.58  43: 42.67  44: 12.80  45: 24.27  46: 35.95  47: 54.89  48: 63.80
  49: 51.23  50: 16.73  51: 43.71  52:104.78  53:138.24  54: 91.57  55: 21.60  56: 26.23
  57: 43.33  58:335.17  59:144.28  60: 14.79  61:  2.11  62:  0.11  63: 40.57  64:433.96
  65: 59.18  66: 57.78  67: 35.93  68: 13.97  69: 21.18  70: 68.18  71: 47.87  72:147.45
  73:  2.70  74: 97.12  75: 38.86  76:  8.16  77:  4.70  78:  5.92
 Raman intensities (amu)
   1:  0.00   2:  0.00   3:  0.00   4:  0.00   5:  0.00   6:  0.00   7:  0.00   8:  0.00
   9:  0.00  10:  0.00  11:  0.00  12:  0.00  13:  0.00  14:  0.00  15:  0.00  16:  0.00
  17:  0.00  18:  0.00  19:  0.00  20:  0.00  21:  0.00  22:  0.00  23:  0.00  24:  0.00
  25:  0.00  26:  0.00  27:  0.00  28:  0.00  29:  0.00  30:  0.00  31:  0.00  32:  0.00
  33:  0.00  34:  0.00  35:  0.00  36:  0.00  37:  0.00  38:  0.00  39:  0.00  40:  0.00
  41:  0.00  42:  0.00  43:  0.00  44:  0.00  45:  0.00  46:  0.00  47:  0.00  48:  0.00
  49:  0.00  50:  0.00  51:  0.00  52:  0.00  53:  0.00  54:  0.00  55:  0.00  56:  0.00
  57:  0.00  58:  0.00  59:  0.00  60:  0.00  61:  0.00  62:  0.00  63:  0.00  64:  0.00
  65:  0.00  66:  0.00  67:  0.00  68:  0.00  69:  0.00  70:  0.00  71:  0.00  72:  0.00
  73:  0.00  74:  0.00  75:  0.00  76:  0.00  77:  0.00  78:  0.00
 output can be read by thermo (or use thermo option).
 writing <g98.out> molden fake output.
 recommended (thermochemical) frequency scaling factor: 1.0
           -------------------------------------------------
          |             Thermodynamic Functions             |
           -------------------------------------------------

Molecule has no symmetry elements
It seems to be the C1 point group
c1  symmetry found (for desy threshold:  0.10E+00) used in thermo

          ...................................................
          :                      SETUP                      :
          :.................................................:
          :  # frequencies                          72      :
          :  # imaginary freq.                       0      :
          :  linear?                             false      :
          :  only rotor calc.                    false      :
          :  symmetry                               c1      :
          :  rotational number                       1      :
          :  scaling factor                  1.0000000      :
          :  rotor cutoff                   50.0000000 cm⁻¹ :
          :  imag. cutoff                  -20.0000000 cm⁻¹ :
          :.................................................:

    mode    ω/cm⁻¹     T·S(HO)/kcal·mol⁻¹    T·S(FR)/kcal·mol⁻¹   T·S(vib)
   ------------------------------------------------------------------------
       1     74.51    -1.20168 ( 83.14%)    -0.93825 ( 16.86%)    -1.15727
       2    105.25    -1.00022 ( 95.15%)    -0.83598 (  4.85%)    -0.99226
       3    126.69    -0.89318 ( 97.63%)    -0.78107 (  2.37%)    -0.89053
       4    169.49    -0.72782 ( 99.25%)    -0.69485 (  0.75%)    -0.72757
       5    204.87    -0.62280 ( 99.65%)    -0.63870 (  0.35%)    -0.62286
       6    270.45    -0.47505 ( 99.88%)    -0.55644 (  0.12%)    -0.47514
       7    290.38    -0.43880 ( 99.91%)    -0.53538 (  0.09%)    -0.43889
   ------------------------------------------------------------------------

   temp. (K)  partition function   enthalpy   heat capacity  entropy
                                   cal/mol     cal/K/mol   cal/K/mol   J/K/mol
 298.15  VIB   801.                 5722.312     42.217     32.297
         ROT  0.965E+06              888.752      2.981     30.365
         INT  0.773E+09             6611.064     45.198     62.662
         TR   0.222E+28             1481.254      4.968     41.354
         TOT                        8092.3180    50.1658   104.0157   435.2019

       T/K    H(0)-H(T)+PV         H(T)/Eh          T*S/Eh         G(T)/Eh
   ------------------------------------------------------------------------
    298.15    0.128959E-01    0.229673E+00    0.494212E-01    0.180252E+00
   ------------------------------------------------------------------------

         :::::::::::::::::::::::::::::::::::::::::::::::::::::
         ::                  THERMODYNAMIC                  ::
         :::::::::::::::::::::::::::::::::::::::::::::::::::::
         :: total free energy         -39.648178198543 Eh   ::
         ::.................................................::
         :: total energy              -39.828429726794 Eh   ::
         :: zero point energy           0.216776833010 Eh   ::
         :: G(RRHO) w/o ZPVE           -0.036525304759 Eh   ::
         :: G(RRHO) contrib.            0.180251528251 Eh   ::
         :::::::::::::::::::::::::::::::::::::::::::::::::::::

optimized geometry written to: xtbopt.xyz


           -------------------------------------------------
          | TOTAL ENERGY              -39.828429726794 Eh   |
          | TOTAL ENTHALPY            -39.598756964263 Eh   |
          | TOTAL FREE ENERGY         -39.648178198543 Eh   |
          | GRADIENT NORM               0.000043401683 Eh/α |
          | HOMO-LUMO GAP               4.950467319648 eV   |
           -------------------------------------------------

------------------------------------------------------------------------
 * finished run on 2025/07/30 at 12:34:49.930     
------------------------------------------------------------------------
 total:
 * wall-time:     0 d,  0 h,  0 min,  1.019 sec
 *  cpu-time:     0 d,  0 h,  0 min,  8.023 sec
 * ratio c/w:     7.870 speedup
 SCF:
 * wall-time:     0 d,  0 h,  0 min,  0.023 sec
 *  cpu-time:     0 d,  0 h,  0 min,  0.182 sec
 * ratio c/w:     7.873 speedup
 ANC optimizer:
 * wall-time:     0 d,  0 h,  0 min,  0.054 sec
 *  cpu-time:     0 d,  0 h,  0 min,  0.431 sec
 * ratio c/w:     7.962 speedup
 analytical hessian:
 * wall-time:     0 d,  0 h,  0 min,  0.922 sec
 *  cpu-time:     0 d,  0 h,  0 min,  7.260 sec
 * ratio c/w:     7.877 speedup

