 Entering Gaussian System
 *********************************************
 Gaussian 98:
 frequency output generated by the xtb code
 *********************************************
                         Standard orientation:
 --------------------------------------------------------------------
  Center     Atomic     Atomic              Coordinates (Angstroms)
  Number     Number      Type              X           Y           Z
 --------------------------------------------------------------------
    1          6             0       -0.902147    2.241455   -0.151446
    2          6             0       -2.040688    1.277355    0.146324
    3          6             0       -1.734787   -0.072359   -0.490595
    4          6             0       -0.368310   -0.632690   -0.008950
    5          8             0       -0.112104   -1.728514   -0.811087
    6          8             0       -0.469040   -0.994516    1.336598
    7          7             0       -2.811405   -1.004525   -0.235316
    8          6             0        0.388186    1.670070    0.418105
    9          7             0        0.693759    0.375742   -0.183995
   10          6             0        1.989727   -0.089406   -0.064432
   11          7             0        2.979294    0.823431   -0.358298
   12          7             0        2.210045   -1.297004    0.298714
   13          1             0       -0.802498    2.373435   -1.230301
   14          1             0       -1.091476    3.214850    0.303144
   15          1             0       -2.987454    1.642765   -0.249887
   16          1             0       -2.144444    1.142520    1.224255
   17          1             0       -1.641814    0.043909   -1.576205
   18          1             0        0.362837   -1.434066    1.569840
   19          1             0       -2.597999   -1.884831   -0.693699
   20          1             0       -2.849619   -1.190124    0.763182
   21          1             0        1.222010    2.349946    0.243229
   22          1             0        0.271952    1.543778    1.504503
   23          1             0        3.897894    0.434997   -0.504285
   24          1             0        2.743110    1.582695   -0.975437
   25          1             0        3.186976   -1.567863    0.274249
   26          1             0        0.762910   -2.075003   -0.540040
 --------------------------------------------------------------------
     1 basis functions        1 primitive gaussians
     1 alpha electrons        1 beta electrons
 
 Harmonic frequencies (cm**-1), IR intensities (km*mol⁻¹),
 Raman scattering activities (A**4/amu), Raman depolarization ratios,
 reduced masses (AMU), force constants (mDyne/A) and normal coordinates:
                      1                      2                      3
                        a                      a                      a 
 Frequencies --    61.9926                83.3808               112.2212
 Red. masses --    12.0921                11.5666                10.8829
 Frc consts  --     0.0000                 0.0000                 0.0000
 IR Inten    --     0.9548                 4.1727                 1.5071
 Raman Activ --     0.0000                 0.0000                 0.0000
 Depolar     --     0.0000                 0.0000                 0.0000
 Atom AN      X      Y      Z        X      Y      Z        X      Y      Z
   1   6    -0.07  -0.00  -0.18     0.07  -0.02  -0.20    -0.15  -0.02   0.10
   2   6    -0.01   0.01   0.07    -0.02   0.08  -0.22    -0.01  -0.13   0.31
   3   6    -0.08  -0.02   0.10    -0.01  -0.03   0.02    -0.00   0.03   0.00
   4   6     0.01   0.02  -0.13    -0.01  -0.03   0.05    -0.00   0.05  -0.01
   5   8    -0.02   0.16  -0.37    -0.05  -0.06   0.11    -0.12  -0.11   0.20
   6   8     0.21  -0.19  -0.20    -0.04   0.03   0.09     0.07   0.35   0.08
   7   7    -0.01  -0.04   0.41    -0.03   0.03   0.21     0.05  -0.10  -0.29
   8   6     0.01   0.11  -0.25    -0.05  -0.04   0.06     0.07   0.08  -0.29
   9   7     0.01   0.05  -0.12     0.02  -0.04   0.10     0.02   0.01  -0.21
  10   6    -0.03  -0.00   0.12     0.02   0.00  -0.06    -0.00  -0.03  -0.06
  11   7     0.09  -0.06   0.36     0.02   0.19   0.42     0.12  -0.04   0.31
  12   7    -0.16  -0.02   0.17     0.11  -0.15  -0.61    -0.08  -0.09  -0.21
  13   1    -0.05  -0.04  -0.06     0.07  -0.05  -0.06    -0.14   0.02   0.03
  14   1    -0.01   0.02  -0.08     0.02   0.01  -0.10    -0.03  -0.02   0.07
  15   1    -0.02  -0.01   0.06     0.02   0.02  -0.12    -0.04  -0.04   0.18
  16   1     0.05   0.02   0.03    -0.05   0.07  -0.06     0.09  -0.09   0.09
  17   1    -0.09  -0.03   0.02    -0.01  -0.06  -0.00     0.01   0.08   0.01
  18   1     0.08  -0.02  -0.10    -0.04  -0.04   0.02    -0.00   0.06   0.02
  19   1    -0.03  -0.01   0.11    -0.02  -0.01   0.09     0.05   0.00  -0.12
  20   1     0.06   0.00   0.12    -0.00   0.05   0.06    -0.01  -0.08  -0.09
  21   1    -0.01   0.04  -0.12    -0.00  -0.01   0.07    -0.02   0.04  -0.19
  22   1     0.04   0.07  -0.06    -0.08  -0.02   0.01     0.13   0.07  -0.07
  23   1     0.03  -0.03   0.15     0.01   0.07   0.08     0.03  -0.03   0.12
  24   1     0.08  -0.01   0.08     0.02   0.10   0.17     0.09   0.02   0.09
  25   1    -0.05  -0.02   0.10     0.04  -0.02  -0.19    -0.02  -0.03  -0.02
  26   1    -0.02   0.01  -0.10     0.02   0.02  -0.01    -0.01  -0.01   0.04
                      4                      5                      6
                        a                      a                      a 
 Frequencies --   180.6039               211.0254               237.0663
 Red. masses --    10.6755                11.6697                12.7688
 Frc consts  --     0.0000                 0.0000                 0.0000
 IR Inten    --     8.4085                 2.4689                 1.4093
 Raman Activ --     0.0000                 0.0000                 0.0000
 Depolar     --     0.0000                 0.0000                 0.0000
 Atom AN      X      Y      Z        X      Y      Z        X      Y      Z
   1   6     0.04   0.00   0.26     0.12  -0.02  -0.01     0.05  -0.05   0.10
   2   6    -0.08   0.00  -0.19     0.14   0.01   0.11     0.09  -0.10   0.11
   3   6    -0.04  -0.03  -0.11    -0.02   0.00   0.02    -0.08  -0.03  -0.14
   4   6     0.02   0.05  -0.18    -0.03  -0.17  -0.04    -0.05   0.02  -0.19
   5   8    -0.10  -0.13   0.02    -0.08  -0.28   0.04     0.20  -0.03  -0.03
   6   8     0.18   0.40  -0.10     0.10  -0.15  -0.03    -0.67   0.18  -0.21
   7   7     0.06  -0.07   0.21    -0.31   0.34  -0.06     0.02  -0.05   0.30
   8   6    -0.05  -0.24   0.22     0.07  -0.17  -0.12     0.13  -0.00  -0.06
   9   7     0.01   0.03  -0.41    -0.05  -0.17  -0.23     0.05  -0.05   0.01
  10   6    -0.00  -0.01  -0.07     0.02   0.05  -0.02     0.07  -0.01   0.00
  11   7     0.04  -0.03   0.08    -0.18   0.35   0.14     0.02   0.07  -0.00
  12   7    -0.10   0.04   0.11     0.23   0.15   0.14     0.18   0.02   0.01
  13   1     0.06   0.10   0.09     0.01  -0.00  -0.00    -0.02   0.01   0.03
  14   1     0.01  -0.04   0.16     0.06  -0.01   0.01     0.01  -0.03   0.06
  15   1     0.02   0.03  -0.13     0.02   0.01   0.08     0.01   0.00   0.11
  16   1    -0.12  -0.01  -0.07     0.09  -0.01   0.04     0.09  -0.09   0.03
  17   1    -0.05  -0.05  -0.04     0.00   0.02   0.01    -0.11  -0.01  -0.04
  18   1     0.05   0.11  -0.03     0.04  -0.02  -0.02    -0.22   0.01   0.07
  19   1     0.01  -0.03   0.08    -0.17   0.07  -0.02    -0.04  -0.02   0.08
  20   1     0.08   0.02   0.07    -0.12   0.08  -0.02     0.12   0.01   0.09
  21   1    -0.00  -0.05   0.20     0.03  -0.06  -0.02     0.02  -0.00  -0.08
  22   1    -0.07  -0.23   0.04     0.03  -0.07  -0.04     0.09   0.03  -0.01
  23   1     0.03   0.01   0.08    -0.00   0.16   0.14     0.01   0.03   0.02
  24   1     0.03   0.01   0.04    -0.06   0.00  -0.07    -0.00  -0.01  -0.04
  25   1    -0.03   0.00   0.10     0.08   0.10   0.10     0.05   0.03   0.00
  26   1    -0.03  -0.03   0.01    -0.01  -0.06  -0.01     0.06   0.03   0.04
                      7                      8                      9
                        a                      a                      a 
 Frequencies --   292.4045               311.7659               317.5656
 Red. masses --     7.3854                 9.6750                 3.1749
 Frc consts  --     0.0000                 0.0000                 0.0000
 IR Inten    --    12.9960                 3.3878                35.1055
 Raman Activ --     0.0000                 0.0000                 0.0000
 Depolar     --     0.0000                 0.0000                 0.0000
 Atom AN      X      Y      Z        X      Y      Z        X      Y      Z
   1   6    -0.18   0.16   0.27     0.08   0.20   0.14    -0.04   0.14   0.09
   2   6    -0.07  -0.09  -0.20     0.03   0.15  -0.13    -0.02   0.04  -0.15
   3   6     0.06  -0.11  -0.09     0.12   0.10   0.00     0.06  -0.03  -0.03
   4   6     0.05  -0.09   0.02    -0.03  -0.01   0.06     0.02  -0.06   0.02
   5   8     0.29  -0.09   0.08    -0.30  -0.07   0.01     0.10  -0.11   0.10
   6   8     0.04  -0.15   0.01    -0.09  -0.21   0.02     0.02  -0.11   0.02
   7   7    -0.19   0.23   0.04     0.41  -0.22   0.01    -0.01   0.11   0.17
   8   6     0.01   0.14  -0.14     0.14   0.04  -0.18     0.01   0.08  -0.08
   9   7    -0.03   0.04   0.02    -0.06  -0.10  -0.01    -0.04   0.01   0.02
  10   6    -0.02   0.03  -0.03    -0.07  -0.04   0.00    -0.05   0.01  -0.01
  11   7     0.12  -0.12   0.01    -0.25   0.18   0.05    -0.01  -0.02   0.01
  12   7    -0.06   0.00  -0.07    -0.03  -0.02   0.02    -0.06  -0.00  -0.03
  13   1    -0.09   0.24   0.10    -0.01   0.19   0.05    -0.02   0.14   0.04
  14   1    -0.08  -0.04   0.25     0.04   0.01   0.16    -0.02  -0.00   0.11
  15   1    -0.00  -0.05  -0.12     0.04   0.05  -0.11     0.02  -0.01  -0.11
  16   1    -0.11  -0.05  -0.07    -0.07   0.06  -0.04    -0.08   0.01  -0.05
  17   1     0.04  -0.08  -0.03     0.05   0.01  -0.00     0.02  -0.02  -0.01
  18   1     0.01  -0.04  -0.00    -0.03  -0.08  -0.01     0.01  -0.03  -0.00
  19   1    -0.02  -0.06   0.26     0.28  -0.07   0.11    -0.37   0.20  -0.46
  20   1    -0.23   0.30   0.05     0.07   0.03   0.02     0.44  -0.42  -0.02
  21   1    -0.03   0.05  -0.16     0.04  -0.02  -0.15    -0.00   0.01  -0.07
  22   1     0.12   0.10  -0.02     0.13   0.06  -0.04     0.04   0.05  -0.02
  23   1     0.01  -0.09  -0.03    -0.02   0.10   0.13    -0.01  -0.02   0.00
  24   1     0.08   0.01   0.04    -0.08  -0.08  -0.15     0.01  -0.00   0.00
  25   1    -0.02  -0.01  -0.03    -0.00   0.01   0.02    -0.02  -0.00  -0.01
  26   1     0.08   0.02   0.05    -0.09  -0.06  -0.03     0.03  -0.01   0.04
                     10                     11                     12
                        a                      a                      a 
 Frequencies --   340.3786               370.2669               401.4013
 Red. masses --    11.5723                10.5522                11.0744
 Frc consts  --     0.0000                 0.0000                 0.0000
 IR Inten    --     9.7627                 1.3542                10.1370
 Raman Activ --     0.0000                 0.0000                 0.0000
 Depolar     --     0.0000                 0.0000                 0.0000
 Atom AN      X      Y      Z        X      Y      Z        X      Y      Z
   1   6    -0.16  -0.08   0.08     0.11  -0.13   0.09     0.25  -0.11   0.06
   2   6    -0.35   0.08  -0.08    -0.03  -0.07  -0.11     0.14  -0.10  -0.11
   3   6    -0.14   0.07   0.08    -0.13  -0.13  -0.01    -0.14  -0.21  -0.01
   4   6    -0.04   0.08   0.06    -0.04   0.08   0.04    -0.09  -0.02   0.06
   5   8    -0.32   0.12  -0.08     0.18   0.33  -0.17    -0.26  -0.01   0.03
   6   8    -0.05  -0.02   0.03     0.18   0.26   0.11    -0.07  -0.13   0.03
   7   7    -0.10  -0.02  -0.02    -0.22  -0.09  -0.04    -0.22  -0.23  -0.04
   8   6    -0.02  -0.09  -0.12     0.22   0.04  -0.01     0.27   0.12   0.13
   9   7     0.18  -0.13   0.04     0.01  -0.04   0.11    -0.02   0.14   0.05
  10   6     0.27  -0.03   0.05    -0.07  -0.19   0.06     0.02   0.25  -0.12
  11   7     0.30  -0.03  -0.04    -0.33   0.05   0.02     0.30   0.09  -0.00
  12   7     0.48   0.01   0.09     0.10  -0.21  -0.03    -0.21   0.29  -0.03
  13   1    -0.07   0.03   0.03     0.04  -0.01   0.03     0.12  -0.05   0.02
  14   1    -0.00  -0.04   0.07     0.01  -0.05   0.04     0.01  -0.03  -0.02
  15   1    -0.05   0.04  -0.13     0.03   0.03  -0.09     0.07   0.04  -0.05
  16   1    -0.21   0.06  -0.03    -0.08  -0.01  -0.04     0.00  -0.02  -0.03
  17   1    -0.02   0.02   0.02    -0.03  -0.06  -0.01    -0.03  -0.09  -0.01
  18   1    -0.02  -0.02   0.00     0.10   0.17   0.03     0.01   0.03   0.01
  19   1    -0.03   0.02  -0.05    -0.10  -0.02  -0.04    -0.06  -0.05  -0.03
  20   1    -0.02  -0.05  -0.01    -0.07  -0.05  -0.02    -0.08  -0.08  -0.02
  21   1    -0.05   0.01  -0.09     0.04   0.01  -0.11     0.08   0.01  -0.04
  22   1     0.05   0.01  -0.02     0.14   0.07   0.01     0.14   0.07   0.05
  23   1     0.07  -0.02  -0.04    -0.01   0.11   0.21     0.06  -0.08   0.10
  24   1     0.08   0.01   0.01    -0.11  -0.17  -0.21     0.21  -0.02  -0.11
  25   1     0.14   0.05   0.02     0.03  -0.03  -0.04    -0.08   0.01   0.00
  26   1    -0.08  -0.00  -0.08     0.03   0.06  -0.01    -0.07  -0.03  -0.02
                     13                     14                     15
                        a                      a                      a 
 Frequencies --   413.7556               432.5159               471.3235
 Red. masses --     3.6390                 8.9393                 4.0715
 Frc consts  --     0.0000                 0.0000                 0.0000
 IR Inten    --    20.8617                 5.0532                86.3525
 Raman Activ --     0.0000                 0.0000                 0.0000
 Depolar     --     0.0000                 0.0000                 0.0000
 Atom AN      X      Y      Z        X      Y      Z        X      Y      Z
   1   6     0.10  -0.02   0.05    -0.17  -0.03  -0.02    -0.02  -0.14   0.02
   2   6     0.13  -0.09  -0.08     0.07  -0.23  -0.03     0.02  -0.18  -0.06
   3   6    -0.01  -0.09  -0.10     0.18  -0.03  -0.22     0.07  -0.06  -0.11
   4   6    -0.03  -0.01  -0.03     0.08  -0.02  -0.08     0.06   0.08   0.03
   5   8    -0.20  -0.01  -0.09    -0.36  -0.14  -0.10    -0.18   0.07   0.05
   6   8     0.07   0.08  -0.01     0.06   0.10  -0.07     0.11   0.16   0.06
   7   7    -0.04  -0.05   0.01     0.10   0.23   0.08     0.00   0.10   0.03
   8   6     0.15   0.07  -0.05    -0.13   0.10   0.09     0.05   0.03   0.02
   9   7     0.00  -0.02   0.08     0.11   0.02   0.31     0.10   0.06  -0.02
  10   6    -0.01  -0.02   0.12     0.09   0.02   0.15     0.05   0.01   0.13
  11   7    -0.11   0.07   0.07     0.04   0.08  -0.05    -0.06   0.06  -0.07
  12   7     0.03  -0.03   0.08    -0.01  -0.06  -0.04    -0.09  -0.05   0.03
  13   1     0.03   0.04   0.02    -0.05  -0.00  -0.00     0.00  -0.04   0.00
  14   1     0.00  -0.03   0.05    -0.09  -0.02  -0.00    -0.04  -0.04  -0.01
  15   1     0.04   0.00   0.00    -0.03  -0.11   0.08    -0.00  -0.05   0.00
  16   1     0.05  -0.06  -0.02     0.10  -0.15  -0.01     0.02  -0.10  -0.02
  17   1    -0.01  -0.05  -0.03     0.05  -0.03  -0.06     0.03  -0.04  -0.03
  18   1     0.08   0.14   0.01     0.13   0.27   0.05    -0.31  -0.71  -0.21
  19   1    -0.03  -0.02   0.01    -0.09   0.03   0.04    -0.09   0.01   0.01
  20   1     0.01   0.00   0.01     0.10   0.11   0.03     0.03   0.05   0.01
  21   1     0.02   0.03  -0.08    -0.04   0.03   0.01    -0.01   0.04  -0.01
  22   1     0.11   0.08   0.00    -0.06   0.07   0.03     0.04   0.00   0.01
  23   1    -0.14  -0.01  -0.61     0.04   0.03   0.12     0.01   0.07  -0.01
  24   1    -0.24   0.28   0.42     0.01  -0.15  -0.23    -0.08  -0.02  -0.03
  25   1     0.01   0.02   0.04    -0.02  -0.07  -0.11    -0.03  -0.03   0.04
  26   1    -0.08  -0.07  -0.02    -0.16  -0.19  -0.00     0.07   0.15  -0.20
                     16                     17                     18
                        a                      a                      a 
 Frequencies --   491.8762               511.5437               528.6716
 Red. masses --    11.6860                 8.8874                 5.8326
 Frc consts  --     0.0000                 0.0000                 0.0000
 IR Inten    --    14.2089                11.4299               183.4434
 Raman Activ --     0.0000                 0.0000                 0.0000
 Depolar     --     0.0000                 0.0000                 0.0000
 Atom AN      X      Y      Z        X      Y      Z        X      Y      Z
   1   6     0.03   0.19  -0.02     0.00   0.29  -0.07    -0.01  -0.22   0.05
   2   6     0.02   0.13   0.02     0.30  -0.09  -0.07    -0.08  -0.08  -0.01
   3   6    -0.28   0.05  -0.13     0.05  -0.14  -0.06     0.05   0.06  -0.11
   4   6    -0.11   0.08  -0.23    -0.07  -0.06   0.11    -0.00   0.12   0.00
   5   8    -0.02  -0.27   0.27    -0.14   0.16  -0.18    -0.07   0.05   0.15
   6   8     0.24  -0.03  -0.31    -0.02   0.10   0.23    -0.01  -0.16  -0.07
   7   7    -0.12  -0.21  -0.02    -0.03  -0.10   0.00     0.10   0.14   0.03
   8   6     0.00   0.22   0.12    -0.14   0.01  -0.02     0.11   0.08   0.07
   9   7    -0.01   0.13   0.15    -0.18  -0.03  -0.02    -0.01   0.09  -0.00
  10   6    -0.05  -0.04   0.18    -0.12  -0.01  -0.06    -0.03  -0.07  -0.22
  11   7    -0.06  -0.14  -0.03    -0.03  -0.26  -0.04    -0.20  -0.19  -0.17
  12   7     0.27  -0.07  -0.01     0.31   0.08   0.03     0.06   0.02   0.09
  13   1     0.03   0.05  -0.00    -0.01   0.22  -0.00     0.03  -0.17   0.00
  14   1    -0.02   0.05  -0.02    -0.05   0.01   0.11    -0.02  -0.02  -0.09
  15   1    -0.01   0.09   0.09     0.01  -0.06   0.12    -0.00   0.00  -0.03
  16   1     0.08   0.01   0.01     0.23  -0.07  -0.01    -0.06  -0.06  -0.01
  17   1    -0.14   0.02  -0.04     0.04  -0.08  -0.02     0.03   0.01  -0.03
  18   1     0.04  -0.13  -0.21    -0.03  -0.03   0.05     0.06   0.06  -0.03
  19   1     0.05  -0.05   0.02    -0.03  -0.03  -0.00    -0.01   0.02   0.02
  20   1    -0.01  -0.04   0.00     0.00  -0.03   0.00     0.08   0.06   0.01
  21   1     0.02   0.04   0.03     0.02  -0.04   0.10    -0.03   0.08  -0.08
  22   1    -0.02   0.08   0.03    -0.14  -0.04  -0.02     0.12   0.07   0.04
  23   1    -0.01  -0.04   0.05     0.03  -0.05   0.21     0.12   0.23   0.39
  24   1    -0.00  -0.06  -0.03     0.15   0.10   0.14     0.08   0.33   0.40
  25   1     0.09   0.06  -0.09     0.12   0.16  -0.00     0.02   0.03  -0.01
  26   1     0.01   0.00   0.11     0.02   0.08  -0.19    -0.05  -0.03   0.09
                     19                     20                     21
                        a                      a                      a 
 Frequencies --   567.6796               578.1950               618.5801
 Red. masses --     8.1999                 9.2149                 8.0931
 Frc consts  --     0.0000                 0.0000                 0.0000
 IR Inten    --    68.1648                12.3980               110.3858
 Raman Activ --     0.0000                 0.0000                 0.0000
 Depolar     --     0.0000                 0.0000                 0.0000
 Atom AN      X      Y      Z        X      Y      Z        X      Y      Z
   1   6    -0.00   0.19  -0.03    -0.04   0.13  -0.08     0.04  -0.08  -0.01
   2   6     0.03   0.12   0.03     0.10  -0.08  -0.06    -0.04   0.04  -0.03
   3   6    -0.04  -0.08   0.21    -0.09  -0.07  -0.09    -0.20   0.16  -0.35
   4   6     0.10  -0.14  -0.07     0.02   0.23   0.10    -0.21   0.02   0.01
   5   8     0.01  -0.23  -0.14    -0.02   0.33   0.24     0.05   0.09   0.16
   6   8    -0.04   0.16  -0.04    -0.06  -0.27  -0.01     0.14  -0.09   0.11
   7   7    -0.16  -0.14  -0.03    -0.12  -0.09   0.01     0.05   0.01   0.03
   8   6    -0.04   0.02  -0.06    -0.05  -0.01  -0.07    -0.02  -0.28  -0.13
   9   7     0.21  -0.05   0.17     0.21   0.08  -0.18    -0.03  -0.25   0.20
  10   6     0.25   0.02   0.09     0.21  -0.15  -0.13     0.06   0.11   0.05
  11   7     0.00   0.09  -0.24     0.04   0.15   0.02     0.10   0.08  -0.07
  12   7    -0.23  -0.10   0.05    -0.07  -0.17   0.04    -0.15   0.06   0.01
  13   1    -0.03   0.14   0.00    -0.04   0.18  -0.00    -0.02   0.06   0.01
  14   1     0.02   0.02   0.08    -0.03  -0.03   0.11     0.08  -0.05   0.09
  15   1     0.01   0.01  -0.03    -0.03  -0.02   0.13    -0.05   0.09   0.16
  16   1    -0.01   0.11   0.02     0.17  -0.08  -0.01     0.12  -0.11  -0.01
  17   1    -0.04  -0.01   0.06    -0.02  -0.07  -0.03    -0.06   0.03  -0.10
  18   1    -0.04   0.02   0.05     0.02  -0.01  -0.02     0.14   0.13  -0.07
  19   1     0.00  -0.02  -0.03    -0.05  -0.03  -0.00     0.05  -0.01   0.05
  20   1    -0.13  -0.08  -0.02    -0.02  -0.02   0.00     0.17   0.05   0.02
  21   1    -0.01   0.02   0.03    -0.00   0.03   0.17     0.00  -0.10  -0.06
  22   1    -0.07   0.02  -0.02    -0.15  -0.12  -0.04    -0.00  -0.03  -0.03
  23   1     0.15   0.31   0.21     0.05   0.16  -0.04     0.03   0.01   0.02
  24   1    -0.04   0.21   0.20    -0.12  -0.02  -0.02     0.06   0.06   0.02
  25   1    -0.12  -0.22  -0.06    -0.04  -0.13   0.05    -0.08  -0.11  -0.03
  26   1     0.08   0.04  -0.15    -0.16  -0.13   0.29     0.21   0.34  -0.17
                     22                     23                     24
                        a                      a                      a 
 Frequencies --   649.2452               672.9066               749.5551
 Red. masses --     8.2667                 8.9658                 8.7528
 Frc consts  --     0.0000                 0.0000                 0.0000
 IR Inten    --   152.7830                87.4897                54.5469
 Raman Activ --     0.0000                 0.0000                 0.0000
 Depolar     --     0.0000                 0.0000                 0.0000
 Atom AN      X      Y      Z        X      Y      Z        X      Y      Z
   1   6     0.00   0.02  -0.01    -0.08   0.09  -0.01    -0.04   0.09   0.05
   2   6    -0.04   0.08   0.01    -0.03  -0.00  -0.00    -0.11   0.11  -0.00
   3   6    -0.08   0.06  -0.08     0.01  -0.01  -0.00    -0.16   0.08  -0.26
   4   6    -0.05  -0.09  -0.03     0.01  -0.01  -0.01    -0.02  -0.15   0.03
   5   8     0.13   0.01  -0.21    -0.06  -0.14   0.04     0.10  -0.14  -0.21
   6   8     0.15   0.22   0.09    -0.01  -0.01  -0.03    -0.00  -0.07   0.41
   7   7     0.01  -0.03   0.01    -0.01   0.00  -0.00    -0.02  -0.03   0.00
   8   6    -0.04  -0.11  -0.02     0.01   0.22   0.14     0.03   0.16   0.13
   9   7    -0.06  -0.19   0.36     0.05   0.04   0.14    -0.01   0.06  -0.16
  10   6    -0.03  -0.05  -0.40     0.04  -0.28  -0.62     0.12  -0.00   0.13
  11   7     0.06   0.09   0.07     0.03   0.11   0.19     0.08   0.01  -0.10
  12   7    -0.04   0.11   0.13     0.03  -0.09   0.19    -0.03  -0.14  -0.19
  13   1    -0.02   0.04  -0.00    -0.00  -0.02  -0.01     0.05  -0.11   0.00
  14   1     0.04  -0.00   0.03    -0.07   0.04  -0.06    -0.03   0.09  -0.12
  15   1    -0.02   0.04   0.05    -0.02  -0.02   0.00    -0.05   0.09   0.11
  16   1     0.04  -0.00   0.00    -0.00  -0.00  -0.00     0.05  -0.07  -0.00
  17   1    -0.03   0.02  -0.02    -0.01   0.00  -0.00    -0.04   0.01  -0.07
  18   1    -0.10  -0.28  -0.10     0.03   0.07   0.01    -0.01  -0.03   0.10
  19   1     0.02  -0.01   0.01     0.00  -0.00   0.00     0.03  -0.02   0.04
  20   1     0.03   0.01   0.01     0.01  -0.00  -0.00     0.12   0.04   0.02
  21   1     0.00  -0.07  -0.07    -0.00   0.06   0.05    -0.02   0.06  -0.02
  22   1     0.00   0.06   0.01    -0.01   0.06   0.03     0.07   0.04   0.04
  23   1    -0.00  -0.02   0.00    -0.02   0.01  -0.12     0.07   0.11   0.02
  24   1     0.10   0.07   0.04    -0.05  -0.08  -0.08    -0.06  -0.00   0.00
  25   1    -0.03  -0.02  -0.04     0.01  -0.02   0.23     0.05   0.11   0.48
  26   1    -0.23  -0.33   0.35     0.20   0.25  -0.31    -0.05  -0.14   0.02
                     25                     26                     27
                        a                      a                      a 
 Frequencies --   770.9151               869.5352               888.7106
 Red. masses --     5.9374                 8.7132                 5.4582
 Frc consts  --     0.0000                 0.0000                 0.0000
 IR Inten    --    45.3633                11.6583                10.3839
 Raman Activ --     0.0000                 0.0000                 0.0000
 Depolar     --     0.0000                 0.0000                 0.0000
 Atom AN      X      Y      Z        X      Y      Z        X      Y      Z
   1   6    -0.03   0.06   0.05    -0.10   0.23   0.12    -0.06   0.07   0.02
   2   6    -0.07   0.06   0.00     0.20  -0.05  -0.01    -0.12   0.20  -0.21
   3   6    -0.09   0.04  -0.16     0.15  -0.07   0.08     0.04  -0.04   0.06
   4   6    -0.02  -0.09   0.05    -0.40  -0.12   0.01     0.34   0.13   0.04
   5   8     0.03  -0.10  -0.14     0.01   0.17   0.06    -0.02   0.02   0.07
   6   8    -0.02  -0.07   0.27     0.02   0.08  -0.14    -0.01  -0.01  -0.12
   7   7    -0.01  -0.02   0.00     0.03   0.00   0.01    -0.03  -0.05   0.01
   8   6     0.04   0.13   0.07    -0.16  -0.01   0.13    -0.16  -0.24   0.19
   9   7     0.01   0.10  -0.28    -0.24  -0.17  -0.12    -0.01  -0.03  -0.04
  10   6     0.03  -0.06  -0.03     0.13  -0.04   0.06     0.00  -0.00  -0.02
  11   7     0.02   0.03   0.09     0.21   0.13  -0.06    -0.05  -0.02   0.02
  12   7     0.09   0.02   0.27     0.05  -0.15   0.03    -0.02   0.03  -0.00
  13   1     0.04  -0.09   0.00     0.10  -0.19   0.01     0.24  -0.01   0.03
  14   1    -0.03   0.07  -0.10    -0.09   0.16  -0.21     0.04   0.05  -0.04
  15   1    -0.03   0.05   0.06     0.06  -0.13  -0.11    -0.19  -0.01   0.28
  16   1     0.02  -0.05  -0.00    -0.04   0.01  -0.01     0.33  -0.01  -0.02
  17   1    -0.01  -0.00  -0.04     0.07  -0.03   0.02     0.02  -0.14   0.00
  18   1    -0.02  -0.03   0.08     0.04   0.01  -0.17    -0.04   0.00   0.10
  19   1     0.01  -0.02   0.02     0.01   0.00  -0.00    -0.06   0.00  -0.04
  20   1     0.08   0.03   0.01    -0.01  -0.01  -0.00    -0.13  -0.05  -0.01
  21   1    -0.00   0.05   0.02    -0.05  -0.05  -0.18    -0.15  -0.03  -0.33
  22   1     0.06  -0.03   0.01     0.17   0.06   0.06     0.31   0.08   0.10
  23   1     0.00   0.02  -0.05     0.09   0.12  -0.02    -0.02  -0.03  -0.01
  24   1    -0.04  -0.03  -0.01    -0.01   0.02  -0.01    -0.00  -0.01  -0.01
  25   1    -0.07  -0.26  -0.69    -0.02  -0.15   0.03    -0.01   0.00  -0.02
  26   1     0.02  -0.01  -0.05    -0.00   0.11   0.16     0.00  -0.05  -0.10
                     28                     29                     30
                        a                      a                      a 
 Frequencies --   911.2863               949.6697               999.9803
 Red. masses --     7.2045                 8.4426                 7.2348
 Frc consts  --     0.0000                 0.0000                 0.0000
 IR Inten    --     7.6019                53.1356                68.1467
 Raman Activ --     0.0000                 0.0000                 0.0000
 Depolar     --     0.0000                 0.0000                 0.0000
 Atom AN      X      Y      Z        X      Y      Z        X      Y      Z
   1   6    -0.02  -0.35  -0.16     0.02  -0.16   0.14    -0.13   0.20  -0.06
   2   6     0.09  -0.08  -0.22     0.46   0.04   0.06     0.03  -0.25  -0.08
   3   6    -0.13   0.17   0.26    -0.09   0.07  -0.08    -0.09   0.12   0.09
   4   6    -0.26  -0.07  -0.01     0.24   0.13  -0.16     0.20   0.20  -0.32
   5   8     0.06  -0.11  -0.10    -0.02   0.02   0.04    -0.01   0.01   0.03
   6   8    -0.01   0.01   0.07     0.01  -0.07   0.15     0.01  -0.08   0.21
   7   7     0.12   0.16   0.01    -0.15  -0.04  -0.01    -0.10   0.08   0.01
   8   6    -0.04   0.08   0.15    -0.45  -0.05  -0.08     0.19  -0.03   0.10
   9   7    -0.05   0.12  -0.09    -0.03   0.08   0.02    -0.01  -0.21  -0.01
  10   6     0.03  -0.02   0.01     0.03  -0.03  -0.05     0.01   0.00   0.05
  11   7     0.08   0.01  -0.01     0.01  -0.02   0.02    -0.11   0.11  -0.04
  12   7     0.03  -0.05   0.01     0.01  -0.01   0.02     0.01  -0.01   0.00
  13   1     0.12   0.26   0.02    -0.02  -0.09   0.03     0.04  -0.01  -0.02
  14   1    -0.19  -0.26   0.25     0.01  -0.03   0.01    -0.21   0.05  -0.10
  15   1    -0.03  -0.04   0.07     0.28   0.17  -0.21    -0.04  -0.25  -0.09
  16   1     0.22   0.11  -0.02    -0.13   0.07  -0.01    -0.03  -0.01  -0.02
  17   1    -0.05   0.07   0.07    -0.13   0.08  -0.03    -0.23   0.11   0.01
  18   1     0.02   0.00  -0.05    -0.02  -0.02   0.10    -0.01  -0.01   0.08
  19   1     0.23   0.12  -0.06     0.13   0.01   0.03     0.25   0.09  -0.02
  20   1    -0.03  -0.07  -0.02     0.08  -0.03   0.00     0.00  -0.10  -0.01
  21   1    -0.10   0.11  -0.06    -0.20   0.04  -0.20     0.14  -0.12   0.02
  22   1     0.06   0.07   0.05    -0.01   0.09   0.00     0.08  -0.05   0.02
  23   1     0.04   0.07  -0.01     0.01   0.03  -0.01    -0.12  -0.21   0.02
  24   1    -0.05  -0.03  -0.01    -0.04  -0.04  -0.02     0.22   0.12   0.01
  25   1     0.00  -0.03  -0.00     0.00   0.00  -0.00    -0.04  -0.13   0.04
  26   1     0.01   0.04   0.08    -0.00  -0.04  -0.06    -0.00   0.02   0.03
                     31                     32                     33
                        a                      a                      a 
 Frequencies --  1007.7092              1024.8763              1032.4093
 Red. masses --     6.4846                 5.4910                 5.0063
 Frc consts  --     0.0000                 0.0000                 0.0000
 IR Inten    --   179.3035                31.7230                18.8823
 Raman Activ --     0.0000                 0.0000                 0.0000
 Depolar     --     0.0000                 0.0000                 0.0000
 Atom AN      X      Y      Z        X      Y      Z        X      Y      Z
   1   6    -0.04   0.00  -0.05     0.08   0.06  -0.23     0.04  -0.14  -0.06
   2   6    -0.02  -0.03  -0.00    -0.13  -0.05   0.20    -0.02   0.12   0.10
   3   6     0.13   0.12  -0.01     0.11  -0.11  -0.07     0.07  -0.08  -0.07
   4   6     0.03  -0.12   0.24     0.01   0.03  -0.31    -0.00  -0.01   0.06
   5   8     0.01   0.04   0.02    -0.05   0.07   0.05     0.00   0.01   0.00
   6   8     0.02   0.06  -0.21    -0.00  -0.06   0.19    -0.00   0.01  -0.04
   7   7    -0.50  -0.06  -0.05     0.00  -0.09  -0.07    -0.01  -0.09  -0.04
   8   6     0.06  -0.04   0.04     0.03  -0.10   0.15    -0.09   0.12   0.07
   9   7     0.06   0.01  -0.01    -0.09   0.07  -0.01    -0.03   0.03  -0.10
  10   6     0.01   0.02  -0.01     0.00   0.00  -0.02    -0.01  -0.07   0.07
  11   7    -0.03  -0.04   0.02     0.09  -0.09   0.04    -0.11   0.31  -0.12
  12   7    -0.02   0.04  -0.01    -0.01   0.05   0.00     0.08  -0.24   0.05
  13   1     0.02   0.04  -0.01     0.10   0.21  -0.03     0.04   0.10   0.01
  14   1    -0.02  -0.01   0.01     0.07  -0.05   0.11     0.00  -0.09   0.10
  15   1    -0.05  -0.13  -0.01    -0.07  -0.25  -0.09     0.03   0.09   0.01
  16   1     0.02   0.05   0.01    -0.05   0.31   0.09     0.02   0.18   0.05
  17   1     0.24   0.12   0.03    -0.03   0.28   0.01     0.13   0.09   0.01
  18   1    -0.03  -0.01   0.04     0.01  -0.00   0.01    -0.00   0.00  -0.00
  19   1     0.38  -0.03   0.19    -0.28  -0.14   0.09    -0.21  -0.11   0.07
  20   1     0.52  -0.02   0.04     0.13   0.17   0.02     0.12   0.13   0.02
  21   1    -0.00   0.01  -0.00     0.01  -0.07  -0.12    -0.06   0.06  -0.03
  22   1     0.04  -0.01   0.01     0.09   0.11   0.06    -0.01   0.04   0.02
  23   1     0.00   0.01   0.00     0.09   0.16  -0.03    -0.18  -0.34   0.03
  24   1    -0.04  -0.02   0.00    -0.18  -0.09   0.00     0.45   0.23  -0.02
  25   1     0.01   0.05  -0.02     0.01   0.06  -0.04    -0.03  -0.25   0.10
  26   1    -0.01  -0.07  -0.05    -0.00   0.06   0.04    -0.01  -0.02  -0.02
                     34                     35                     36
                        a                      a                      a 
 Frequencies --  1056.7748              1075.7213              1095.5858
 Red. masses --     9.4379                 8.3432                 8.6866
 Frc consts  --     0.0000                 0.0000                 0.0000
 IR Inten    --    12.6882                90.9076                60.7423
 Raman Activ --     0.0000                 0.0000                 0.0000
 Depolar     --     0.0000                 0.0000                 0.0000
 Atom AN      X      Y      Z        X      Y      Z        X      Y      Z
   1   6    -0.10   0.01   0.10    -0.24  -0.02  -0.03     0.19  -0.01   0.04
   2   6     0.09   0.11  -0.06     0.14   0.08   0.00    -0.15  -0.03  -0.03
   3   6     0.18   0.02   0.01    -0.21   0.00  -0.08     0.00  -0.02   0.03
   4   6    -0.27  -0.14  -0.18     0.13  -0.40   0.06     0.04  -0.50  -0.29
   5   8    -0.06   0.00  -0.06    -0.05   0.25   0.16    -0.12   0.27   0.17
   6   8    -0.04  -0.03   0.18     0.07   0.04  -0.18     0.09  -0.01  -0.04
   7   7    -0.06  -0.09   0.02     0.15  -0.00  -0.03     0.00   0.09   0.01
   8   6    -0.03  -0.06  -0.05     0.13   0.05   0.09    -0.10   0.09  -0.06
   9   7     0.51   0.06   0.04     0.12  -0.24  -0.03     0.01   0.12   0.00
  10   6     0.09   0.09  -0.06     0.01   0.05  -0.01    -0.11  -0.04   0.00
  11   7    -0.28  -0.13   0.06    -0.05  -0.07   0.02     0.07   0.12  -0.05
  12   7    -0.01   0.18  -0.05    -0.06   0.10  -0.02    -0.01  -0.16   0.07
  13   1     0.07  -0.07   0.02    -0.00   0.01  -0.00     0.05  -0.00   0.01
  14   1     0.06   0.05  -0.05    -0.42  -0.06  -0.04     0.28   0.03   0.04
  15   1    -0.04  -0.12  -0.01     0.10   0.18  -0.02    -0.09  -0.08   0.05
  16   1     0.08   0.07  -0.00     0.03   0.21   0.02    -0.00  -0.14  -0.02
  17   1     0.01   0.01  -0.00    -0.08   0.12  -0.01    -0.10  -0.06  -0.01
  18   1     0.05   0.01  -0.11    -0.07  -0.02   0.20    -0.11  -0.04   0.33
  19   1    -0.05  -0.03   0.01    -0.15  -0.03  -0.02     0.18   0.07  -0.02
  20   1    -0.04  -0.02   0.00    -0.00   0.10   0.00    -0.01  -0.07  -0.01
  21   1    -0.20   0.23  -0.00     0.03   0.03   0.05    -0.05   0.06   0.00
  22   1     0.09  -0.14  -0.02     0.08  -0.09   0.01    -0.07   0.06  -0.02
  23   1    -0.14  -0.20   0.04    -0.01  -0.00   0.01     0.01   0.00  -0.01
  24   1     0.01  -0.03  -0.01    -0.06  -0.03   0.01     0.09   0.05  -0.01
  25   1    -0.02  -0.01   0.04    -0.00   0.07  -0.03     0.04   0.10  -0.03
  26   1     0.01   0.17   0.19    -0.02  -0.03  -0.04    -0.01   0.11   0.09
                     37                     38                     39
                        a                      a                      a 
 Frequencies --  1117.0697              1128.3432              1143.2405
 Red. masses --     8.2064                 6.8605                 7.0788
 Frc consts  --     0.0000                 0.0000                 0.0000
 IR Inten    --    85.5724                87.1616                22.0016
 Raman Activ --     0.0000                 0.0000                 0.0000
 Depolar     --     0.0000                 0.0000                 0.0000
 Atom AN      X      Y      Z        X      Y      Z        X      Y      Z
   1   6     0.14   0.21  -0.06     0.15   0.05  -0.11    -0.25   0.03  -0.25
   2   6     0.01  -0.27   0.10    -0.09  -0.09   0.08     0.14   0.13   0.08
   3   6    -0.37  -0.04  -0.08    -0.10  -0.07   0.01     0.07   0.04  -0.12
   4   6    -0.06  -0.09   0.37     0.04  -0.07   0.05    -0.08  -0.13   0.02
   5   8     0.07  -0.02   0.01    -0.04   0.04  -0.01    -0.00   0.03   0.02
   6   8    -0.03   0.04  -0.10     0.04   0.02  -0.08    -0.01  -0.00   0.02
   7   7     0.19   0.12  -0.02     0.05   0.08  -0.02    -0.02  -0.01   0.06
   8   6    -0.12  -0.14  -0.02    -0.09   0.10   0.13     0.19  -0.31   0.29
   9   7     0.22   0.16  -0.01    -0.08  -0.10  -0.10     0.09   0.28  -0.06
  10   6     0.02  -0.01  -0.02     0.28   0.11  -0.04    -0.02  -0.02   0.00
  11   7    -0.08   0.02  -0.00    -0.21  -0.22   0.09    -0.03   0.05  -0.01
  12   7    -0.03  -0.03   0.01     0.15   0.29  -0.12    -0.00  -0.06   0.02
  13   1     0.18   0.05  -0.00    -0.06   0.08  -0.03    -0.49   0.06  -0.09
  14   1     0.16   0.08  -0.02     0.11  -0.01   0.06     0.11  -0.02   0.07
  15   1    -0.01  -0.26  -0.12     0.03   0.10   0.00     0.07   0.04  -0.08
  16   1    -0.11   0.06   0.03    -0.11  -0.14  -0.00    -0.10  -0.07  -0.01
  17   1    -0.22   0.12  -0.01     0.03  -0.08   0.00    -0.04  -0.16  -0.05
  18   1     0.03   0.02  -0.12    -0.04  -0.03   0.10     0.01   0.00  -0.01
  19   1     0.03   0.05  -0.05     0.06   0.03  -0.01     0.08   0.05  -0.05
  20   1    -0.02   0.05  -0.01     0.04   0.00  -0.01    -0.13  -0.10  -0.01
  21   1    -0.12   0.06  -0.10     0.01  -0.04  -0.06     0.05  -0.13  -0.13
  22   1     0.08  -0.00   0.01    -0.07   0.23   0.05     0.09   0.18   0.11
  23   1    -0.05  -0.07   0.01    -0.07  -0.10   0.03    -0.02  -0.03  -0.00
  24   1     0.06   0.03  -0.01    -0.14  -0.09   0.02     0.06   0.03  -0.00
  25   1     0.02   0.07  -0.01    -0.13  -0.49   0.18     0.02   0.04  -0.01
  26   1    -0.01  -0.19  -0.19    -0.01   0.08   0.10    -0.00  -0.02  -0.03
                     40                     41                     42
                        a                      a                      a 
 Frequencies --  1166.6196              1178.0004              1200.3266
 Red. masses --     8.3483                 5.4635                 6.7371
 Frc consts  --     0.0000                 0.0000                 0.0000
 IR Inten    --     6.1658               152.6282                65.4115
 Raman Activ --     0.0000                 0.0000                 0.0000
 Depolar     --     0.0000                 0.0000                 0.0000
 Atom AN      X      Y      Z        X      Y      Z        X      Y      Z
   1   6    -0.10   0.06   0.05    -0.05  -0.13   0.04     0.15   0.11  -0.22
   2   6     0.02   0.07   0.01    -0.04   0.20   0.06    -0.14  -0.09   0.19
   3   6    -0.27  -0.52   0.16     0.12  -0.24  -0.10     0.06  -0.09   0.04
   4   6    -0.05   0.13  -0.11     0.07  -0.11  -0.11    -0.01   0.06  -0.08
   5   8    -0.04  -0.06  -0.06     0.05   0.16   0.16     0.01   0.02  -0.00
   6   8     0.01  -0.02   0.03    -0.12   0.03   0.10    -0.06  -0.00   0.07
   7   7     0.14   0.27  -0.19    -0.03   0.12  -0.02    -0.03   0.06  -0.01
   8   6     0.06  -0.15  -0.06     0.04   0.18   0.03    -0.14   0.13   0.19
   9   7     0.04   0.16   0.08    -0.11  -0.18  -0.03     0.26  -0.33  -0.12
  10   6    -0.01  -0.01  -0.00     0.03   0.02   0.01    -0.00  -0.01   0.00
  11   7     0.00   0.02  -0.01     0.01  -0.03   0.01    -0.01   0.03  -0.01
  12   7     0.00  -0.03   0.01     0.02   0.06  -0.02    -0.16  -0.03   0.03
  13   1    -0.06  -0.05   0.00    -0.05  -0.00   0.01     0.11   0.17  -0.03
  14   1    -0.01   0.04  -0.04     0.13  -0.02   0.05    -0.12  -0.04   0.03
  15   1     0.03   0.12   0.05    -0.06  -0.10   0.01     0.11   0.31   0.02
  16   1     0.06   0.20   0.03     0.07   0.23   0.04    -0.18  -0.21   0.01
  17   1     0.08  -0.26   0.03    -0.24  -0.18  -0.06     0.10  -0.16   0.00
  18   1    -0.03  -0.02   0.09     0.13   0.05  -0.41     0.06   0.03  -0.18
  19   1     0.15   0.02   0.07     0.21   0.07  -0.01     0.09   0.02   0.02
  20   1     0.36   0.12  -0.01     0.01  -0.09  -0.02     0.03  -0.04  -0.01
  21   1     0.02  -0.04  -0.00    -0.04   0.12   0.08    -0.07   0.03  -0.11
  22   1     0.05  -0.07  -0.01    -0.03  -0.04  -0.01     0.07   0.06   0.05
  23   1    -0.00  -0.00  -0.00     0.01  -0.00   0.01    -0.02  -0.03  -0.00
  24   1     0.02   0.01  -0.00    -0.04  -0.02   0.00     0.05   0.02  -0.01
  25   1     0.01   0.03   0.00    -0.03  -0.09   0.01     0.07   0.36  -0.14
  26   1     0.01   0.12   0.12    -0.04  -0.29  -0.28     0.01   0.04   0.04
                     43                     44                     45
                        a                      a                      a 
 Frequencies --  1215.9008              1233.6655              1262.6624
 Red. masses --     6.3340                 5.5908                 3.7700
 Frc consts  --     0.0000                 0.0000                 0.0000
 IR Inten    --   181.1964                 8.5021                30.3558
 Raman Activ --     0.0000                 0.0000                 0.0000
 Depolar     --     0.0000                 0.0000                 0.0000
 Atom AN      X      Y      Z        X      Y      Z        X      Y      Z
   1   6     0.07   0.07   0.06     0.04   0.00  -0.07    -0.08   0.11  -0.22
   2   6    -0.11  -0.08  -0.09    -0.12   0.04   0.30     0.02  -0.07   0.04
   3   6     0.05   0.01   0.18     0.23  -0.02  -0.31    -0.02   0.02   0.09
   4   6    -0.01  -0.25  -0.18    -0.04  -0.00   0.10     0.03  -0.02  -0.12
   5   8     0.03   0.11   0.12    -0.04  -0.04  -0.06     0.01   0.02   0.05
   6   8    -0.11   0.02   0.12     0.04  -0.01  -0.04     0.00   0.01   0.01
   7   7    -0.01  -0.01  -0.03    -0.07   0.03   0.10     0.00  -0.01   0.00
   8   6    -0.04  -0.20  -0.15    -0.01  -0.11  -0.16     0.14  -0.10  -0.00
   9   7     0.05   0.37   0.06    -0.05   0.21   0.09    -0.21   0.06   0.14
  10   6     0.05   0.00  -0.03    -0.03   0.00  -0.01    -0.12   0.00   0.02
  11   7    -0.06  -0.02   0.02     0.01  -0.01   0.00     0.09   0.01  -0.02
  12   7     0.06  -0.02   0.01     0.07  -0.02  -0.00     0.09   0.02  -0.01
  13   1     0.13  -0.03   0.02     0.37   0.10   0.03     0.02   0.11  -0.05
  14   1    -0.28  -0.01  -0.07    -0.33  -0.08   0.00     0.10   0.02   0.01
  15   1     0.04   0.29   0.10     0.03   0.04  -0.04     0.09   0.18  -0.01
  16   1     0.01  -0.17  -0.04    -0.10   0.18   0.09    -0.12  -0.25  -0.03
  17   1     0.05   0.16   0.07    -0.11  -0.27  -0.12     0.11   0.05   0.04
  18   1     0.10   0.04  -0.31    -0.04  -0.02   0.12    -0.00  -0.00   0.01
  19   1    -0.03  -0.03   0.03     0.18   0.09  -0.06    -0.02  -0.01   0.01
  20   1     0.07   0.03   0.01    -0.17  -0.17  -0.02     0.01   0.01   0.00
  21   1     0.16  -0.26  -0.05     0.04  -0.07   0.01    -0.29   0.40   0.06
  22   1    -0.05   0.08  -0.02     0.07  -0.14  -0.04     0.29  -0.44  -0.02
  23   1    -0.02  -0.02  -0.01     0.01   0.02  -0.01     0.04   0.04   0.01
  24   1     0.00  -0.00   0.00    -0.01  -0.01  -0.00    -0.03  -0.02  -0.01
  25   1    -0.01  -0.11   0.04    -0.02  -0.12   0.06    -0.04  -0.20   0.07
  26   1    -0.02  -0.19  -0.18     0.01   0.10   0.09    -0.01  -0.10  -0.09
                     46                     47                     48
                        a                      a                      a 
 Frequencies --  1295.8813              1312.9501              1336.2509
 Red. masses --     4.0464                 3.7473                 4.6620
 Frc consts  --     0.0000                 0.0000                 0.0000
 IR Inten    --    78.4628                 7.0470                 9.9307
 Raman Activ --     0.0000                 0.0000                 0.0000
 Depolar     --     0.0000                 0.0000                 0.0000
 Atom AN      X      Y      Z        X      Y      Z        X      Y      Z
   1   6    -0.07   0.04  -0.01     0.21  -0.02  -0.02    -0.31  -0.14  -0.10
   2   6    -0.08  -0.11  -0.13     0.05   0.32   0.05     0.14   0.11   0.06
   3   6     0.32  -0.17   0.04     0.06   0.05   0.17    -0.10   0.13   0.09
   4   6     0.03   0.01   0.24    -0.04   0.02   0.05     0.14  -0.10   0.06
   5   8    -0.05  -0.05  -0.09     0.02  -0.01  -0.00    -0.04   0.00  -0.03
   6   8     0.00   0.01  -0.05     0.02  -0.00  -0.03    -0.05   0.02   0.01
   7   7    -0.06   0.04  -0.07     0.02  -0.02  -0.19     0.02  -0.03  -0.09
   8   6     0.01   0.00   0.03     0.02  -0.09  -0.02    -0.12   0.23  -0.00
   9   7    -0.02  -0.00  -0.01    -0.02   0.01  -0.00     0.07   0.04   0.01
  10   6    -0.03   0.01   0.00    -0.00  -0.00   0.00    -0.07   0.01   0.00
  11   7     0.02   0.01  -0.00     0.01   0.01  -0.00    -0.01  -0.02   0.01
  12   7     0.01  -0.03   0.00     0.00  -0.00  -0.00     0.03   0.00  -0.01
  13   1    -0.05   0.00  -0.01    -0.08  -0.00  -0.01     0.28   0.06   0.02
  14   1     0.13   0.04  -0.01    -0.36  -0.09   0.01     0.28  -0.02   0.10
  15   1     0.07   0.33   0.09    -0.11  -0.30  -0.04     0.03  -0.09  -0.08
  16   1     0.05  -0.00  -0.02    -0.12  -0.37  -0.05    -0.07  -0.20  -0.03
  17   1    -0.64   0.32  -0.00    -0.38  -0.23  -0.01    -0.08  -0.19  -0.00
  18   1     0.01   0.00  -0.02    -0.02  -0.01   0.05     0.05   0.03  -0.15
  19   1     0.02  -0.04   0.07    -0.16  -0.13   0.11    -0.10  -0.07   0.04
  20   1     0.08  -0.02  -0.01     0.22   0.11  -0.01     0.11   0.08   0.00
  21   1    -0.00   0.01   0.01    -0.12   0.12  -0.02     0.30  -0.35   0.01
  22   1     0.04  -0.03   0.01    -0.06   0.05  -0.00     0.22  -0.23  -0.01
  23   1     0.01   0.01  -0.00     0.00  -0.01   0.00     0.02   0.06  -0.02
  24   1     0.00   0.00  -0.00    -0.00  -0.00  -0.00     0.01   0.01   0.01
  25   1     0.01   0.01   0.00    -0.00  -0.01   0.00    -0.01  -0.04   0.03
  26   1     0.01   0.17   0.17    -0.00  -0.03  -0.03     0.01   0.10   0.11
                     49                     50                     51
                        a                      a                      a 
 Frequencies --  1344.5037              1360.4160              1364.6700
 Red. masses --     5.2000                 5.6941                 5.7847
 Frc consts  --     0.0000                 0.0000                 0.0000
 IR Inten    --    19.4356                 4.8870                28.9913
 Raman Activ --     0.0000                 0.0000                 0.0000
 Depolar     --     0.0000                 0.0000                 0.0000
 Atom AN      X      Y      Z        X      Y      Z        X      Y      Z
   1   6    -0.40  -0.05  -0.02    -0.04  -0.07  -0.01     0.11  -0.07  -0.04
   2   6     0.09   0.09   0.06     0.08   0.34   0.04    -0.02   0.18  -0.01
   3   6     0.07  -0.09   0.04    -0.13  -0.36  -0.14     0.09  -0.26  -0.04
   4   6    -0.24   0.13  -0.07     0.24  -0.05   0.09    -0.34   0.15  -0.05
   5   8     0.07   0.00   0.06    -0.09  -0.01  -0.07     0.09   0.00   0.06
   6   8     0.08  -0.03  -0.02    -0.07   0.02   0.02     0.10  -0.03  -0.04
   7   7     0.01   0.01  -0.01     0.01   0.06   0.11     0.01   0.05   0.06
   8   6     0.22  -0.10  -0.03     0.07  -0.05  -0.00    -0.22   0.18   0.01
   9   7    -0.03  -0.04  -0.04    -0.02   0.00  -0.01     0.08   0.01   0.04
  10   6     0.12  -0.02   0.00    -0.08   0.01   0.00     0.14  -0.01  -0.01
  11   7    -0.02   0.00   0.00     0.03   0.01  -0.00    -0.06  -0.03   0.01
  12   7    -0.05   0.03  -0.00     0.02  -0.03   0.01    -0.04   0.04  -0.01
  13   1     0.48   0.07   0.06     0.08   0.04   0.01    -0.15   0.01  -0.02
  14   1     0.18   0.04   0.01    -0.10  -0.03  -0.01    -0.04  -0.04   0.02
  15   1     0.06   0.08  -0.02    -0.08  -0.17  -0.00    -0.04  -0.05  -0.00
  16   1    -0.07  -0.18  -0.02    -0.11  -0.29  -0.05    -0.00  -0.15  -0.03
  17   1    -0.05   0.05   0.01     0.18   0.45   0.04     0.01   0.29   0.03
  18   1    -0.07  -0.04   0.22     0.06   0.03  -0.20    -0.09  -0.04   0.29
  19   1    -0.00  -0.01   0.02     0.15   0.09  -0.05     0.08   0.04  -0.01
  20   1     0.01  -0.01  -0.00    -0.12  -0.08   0.00    -0.07  -0.06  -0.00
  21   1    -0.02   0.08   0.07    -0.03   0.04  -0.02     0.17  -0.24  -0.02
  22   1    -0.27   0.31  -0.00    -0.10   0.06  -0.01     0.27  -0.28  -0.00
  23   1    -0.02  -0.05   0.02     0.02   0.03  -0.01    -0.02  -0.03   0.01
  24   1    -0.00   0.00   0.00     0.01  -0.00  -0.01    -0.01   0.01   0.02
  25   1     0.00   0.06  -0.03     0.00  -0.01   0.01    -0.00   0.03  -0.01
  26   1    -0.01  -0.17  -0.18     0.01   0.20   0.20    -0.02  -0.21  -0.21
                     52                     53                     54
                        a                      a                      a 
 Frequencies --  1392.8957              1466.4544              1471.2762
 Red. masses --     9.2724                 2.3508                 1.9535
 Frc consts  --     0.0000                 0.0000                 0.0000
 IR Inten    --   327.1384                14.5242                 1.5904
 Raman Activ --     0.0000                 0.0000                 0.0000
 Depolar     --     0.0000                 0.0000                 0.0000
 Atom AN      X      Y      Z        X      Y      Z        X      Y      Z
   1   6    -0.01  -0.01  -0.03    -0.01  -0.03   0.02     0.02  -0.23   0.14
   2   6     0.00   0.01   0.01     0.09  -0.04  -0.06    -0.09   0.01   0.07
   3   6    -0.02   0.04  -0.01     0.01   0.02   0.00    -0.02   0.02   0.01
   4   6     0.12  -0.07   0.01    -0.02  -0.02  -0.00     0.01  -0.01   0.01
   5   8    -0.03  -0.00  -0.01     0.00   0.00   0.00    -0.00  -0.00  -0.00
   6   8    -0.02   0.02  -0.01     0.01   0.00  -0.01    -0.00   0.00  -0.00
   7   7     0.00  -0.01  -0.00     0.00  -0.00  -0.00     0.00  -0.00  -0.01
   8   6     0.04  -0.02  -0.06     0.15   0.11   0.15     0.01  -0.01   0.01
   9   7    -0.38   0.12   0.06    -0.06   0.05   0.03    -0.01   0.02   0.00
  10   6     0.63   0.15  -0.09     0.14   0.00   0.00     0.01   0.01  -0.00
  11   7    -0.12   0.00   0.01    -0.10  -0.07   0.05    -0.00  -0.00   0.00
  12   7    -0.13  -0.21   0.08    -0.02   0.01  -0.00     0.00  -0.01   0.00
  13   1    -0.00  -0.01  -0.01     0.01   0.06   0.01    -0.09   0.60   0.08
  14   1     0.02  -0.02   0.03     0.02   0.03  -0.05     0.01   0.25  -0.56
  15   1     0.00  -0.02  -0.02    -0.09   0.00   0.24     0.11  -0.01  -0.26
  16   1     0.00  -0.01  -0.00    -0.24   0.09  -0.01     0.27  -0.08   0.02
  17   1     0.00  -0.02  -0.00    -0.01  -0.02  -0.00    -0.01  -0.03   0.00
  18   1     0.02   0.01  -0.07    -0.00   0.00   0.01     0.00   0.00  -0.01
  19   1    -0.01  -0.00  -0.00    -0.01  -0.01   0.00    -0.00  -0.00   0.00
  20   1    -0.01   0.01   0.00    -0.00   0.00  -0.00     0.01   0.01   0.00
  21   1    -0.00   0.04   0.09    -0.05  -0.07  -0.56    -0.00  -0.02  -0.05
  22   1     0.10  -0.10  -0.01    -0.44  -0.40  -0.10    -0.04  -0.04  -0.01
  23   1    -0.13  -0.29   0.13     0.02   0.13  -0.11    -0.00  -0.00   0.00
  24   1    -0.14  -0.01   0.04     0.16   0.00  -0.05    -0.00   0.00   0.00
  25   1     0.09   0.30  -0.13     0.01   0.04  -0.01     0.00   0.00   0.00
  26   1     0.00   0.08   0.07    -0.00  -0.01  -0.01    -0.00   0.00   0.00
                     55                     56                     57
                        a                      a                      a 
 Frequencies --  1483.3319              1493.2267              1561.0137
 Red. masses --     2.3514                 3.3151                 2.0759
 Frc consts  --     0.0000                 0.0000                 0.0000
 IR Inten    --    36.3942               127.9506                40.9808
 Raman Activ --     0.0000                 0.0000                 0.0000
 Depolar     --     0.0000                 0.0000                 0.0000
 Atom AN      X      Y      Z        X      Y      Z        X      Y      Z
   1   6     0.01  -0.12   0.05     0.01  -0.04   0.01    -0.00   0.00   0.01
   2   6     0.21  -0.03  -0.12     0.06  -0.01  -0.03     0.01  -0.01  -0.00
   3   6     0.01   0.02   0.00     0.00   0.01  -0.00    -0.08   0.04  -0.03
   4   6    -0.01   0.01  -0.01     0.02  -0.02  -0.01     0.01  -0.02   0.00
   5   8     0.00  -0.00   0.00    -0.00   0.00   0.00    -0.00   0.00  -0.00
   6   8     0.00  -0.00   0.01     0.00   0.01  -0.00    -0.00   0.00  -0.00
   7   7    -0.00  -0.01  -0.01     0.00  -0.00  -0.00     0.10   0.24  -0.09
   8   6    -0.07  -0.02  -0.04    -0.06  -0.05  -0.09    -0.00  -0.00  -0.00
   9   7     0.05  -0.01  -0.01    -0.10   0.01   0.00    -0.00   0.00  -0.00
  10   6    -0.10   0.02  -0.02     0.21  -0.05   0.04     0.00   0.01  -0.00
  11   7     0.11   0.08  -0.06    -0.24  -0.17   0.12    -0.00  -0.00   0.00
  12   7     0.02  -0.03   0.01    -0.05   0.07  -0.03     0.00  -0.00   0.00
  13   1    -0.03   0.25   0.03    -0.02   0.10   0.01    -0.01  -0.00  -0.00
  14   1     0.01   0.10  -0.23     0.00   0.03  -0.09     0.01   0.00  -0.00
  15   1    -0.20  -0.02   0.49    -0.06  -0.01   0.14     0.00  -0.01  -0.01
  16   1    -0.52   0.15  -0.04    -0.15   0.04  -0.01     0.01   0.02   0.00
  17   1    -0.00  -0.02  -0.00    -0.00  -0.01  -0.00     0.07   0.03   0.00
  18   1    -0.00  -0.00   0.01     0.00  -0.00  -0.01    -0.00  -0.00  -0.00
  19   1    -0.01  -0.01   0.00    -0.00   0.00  -0.00    -0.15  -0.32   0.56
  20   1    -0.00  -0.00  -0.00    -0.00   0.00   0.00    -0.06  -0.67  -0.13
  21   1     0.04  -0.02   0.15    -0.00   0.08   0.29    -0.00   0.00   0.00
  22   1     0.14   0.11   0.03     0.22   0.15   0.04     0.00   0.00   0.00
  23   1    -0.04  -0.18   0.14     0.09   0.40  -0.31     0.00   0.00  -0.00
  24   1    -0.23  -0.00   0.07     0.53  -0.00  -0.17     0.00  -0.00  -0.00
  25   1    -0.00  -0.03   0.01     0.00   0.06  -0.02     0.00  -0.00   0.00
  26   1     0.00  -0.01  -0.01    -0.00   0.02   0.01    -0.00  -0.00   0.00
                     58                     59                     60
                        a                      a                      a 
 Frequencies --  1670.3174              2877.1739              2937.1054
 Red. masses --    12.0899                 1.7439                 1.7350
 Frc consts  --     0.0000                 0.0000                 0.0000
 IR Inten    --   400.8409                38.9639                32.6295
 Raman Activ --     0.0000                 0.0000                 0.0000
 Depolar     --     0.0000                 0.0000                 0.0000
 Atom AN      X      Y      Z        X      Y      Z        X      Y      Z
   1   6     0.01  -0.00   0.00     0.00  -0.01  -0.01     0.00  -0.00  -0.01
   2   6    -0.00  -0.00   0.00    -0.00   0.00  -0.01    -0.01   0.01  -0.02
   3   6    -0.00   0.01  -0.00     0.00   0.00  -0.00    -0.02  -0.02   0.25
   4   6     0.04  -0.06   0.01    -0.00  -0.00   0.00     0.00  -0.00   0.01
   5   8    -0.01   0.00  -0.00     0.00  -0.00  -0.00    -0.00   0.00  -0.00
   6   8    -0.01   0.01  -0.00     0.00  -0.00  -0.00     0.00   0.00  -0.00
   7   7     0.00   0.00  -0.00     0.00  -0.00  -0.00    -0.00  -0.00   0.00
   8   6    -0.01   0.01  -0.02    -0.04  -0.06   0.25    -0.00  -0.00   0.00
   9   7    -0.09   0.09   0.01    -0.01   0.01   0.01    -0.00   0.00  -0.00
  10   6     0.14  -0.76   0.21     0.00  -0.00   0.00     0.00  -0.00   0.00
  11   7     0.07   0.13  -0.06    -0.00  -0.00  -0.00    -0.00   0.00  -0.00
  12   7    -0.11   0.48  -0.14     0.00   0.00  -0.00    -0.00   0.00  -0.00
  13   1    -0.00   0.01   0.00    -0.00  -0.01   0.06    -0.00  -0.00   0.03
  14   1    -0.00   0.00  -0.01    -0.00   0.02   0.01    -0.00   0.02   0.01
  15   1    -0.00   0.00   0.00     0.01  -0.00   0.00     0.03  -0.01   0.01
  16   1    -0.00   0.00   0.00     0.00  -0.00   0.01    -0.01  -0.01   0.09
  17   1    -0.01  -0.00  -0.00    -0.00  -0.00   0.01     0.08   0.10  -0.95
  18   1     0.01   0.01  -0.05     0.00   0.00   0.00     0.00  -0.00   0.00
  19   1    -0.00  -0.00   0.00    -0.00   0.00   0.00    -0.00  -0.00  -0.00
  20   1     0.00  -0.01  -0.00     0.00   0.00   0.00    -0.00  -0.01   0.01
  21   1    -0.00   0.00  -0.00     0.06   0.04   0.03     0.01   0.00  -0.00
  22   1     0.01  -0.03  -0.00     0.11   0.12  -0.95     0.00   0.00  -0.01
  23   1    -0.03  -0.12   0.07    -0.00   0.00   0.00     0.00  -0.00   0.00
  24   1    -0.02   0.05   0.04     0.00   0.00   0.00     0.00   0.00   0.00
  25   1    -0.05   0.10  -0.03    -0.00   0.00   0.00     0.00   0.00   0.00
  26   1    -0.00   0.07   0.04     0.00  -0.00   0.00     0.00  -0.00   0.00
                     61                     62                     63
                        a                      a                      a 
 Frequencies --  2980.2473              2988.1633              2993.0599
 Red. masses --     1.9130                 1.5792                 1.8623
 Frc consts  --     0.0000                 0.0000                 0.0000
 IR Inten    --    12.8086                10.9003                63.0631
 Raman Activ --     0.0000                 0.0000                 0.0000
 Depolar     --     0.0000                 0.0000                 0.0000
 Atom AN      X      Y      Z        X      Y      Z        X      Y      Z
   1   6     0.04  -0.09  -0.24    -0.03   0.18  -0.01    -0.02   0.05   0.12
   2   6     0.01  -0.03   0.13     0.04  -0.02   0.06     0.03  -0.04   0.20
   3   6    -0.00  -0.00   0.01     0.00  -0.00   0.01    -0.00  -0.00   0.03
   4   6    -0.00   0.00  -0.00     0.00   0.00   0.00    -0.00  -0.00   0.00
   5   8     0.00  -0.00   0.00    -0.00  -0.00  -0.00     0.00  -0.00  -0.00
   6   8     0.00  -0.00   0.00     0.00   0.00  -0.00     0.00  -0.00  -0.00
   7   7    -0.00  -0.00  -0.00    -0.00  -0.00  -0.00    -0.00  -0.00  -0.00
   8   6     0.01   0.01  -0.02    -0.09  -0.06   0.01     0.10   0.08  -0.00
   9   7     0.00   0.00   0.00    -0.00  -0.01  -0.00     0.00   0.01  -0.00
  10   6    -0.00   0.00  -0.00    -0.00  -0.00  -0.00     0.00   0.00   0.00
  11   7     0.00  -0.00   0.00    -0.00   0.00  -0.00     0.00  -0.00  -0.00
  12   7     0.00  -0.00   0.00    -0.00   0.00   0.00    -0.00  -0.00  -0.00
  13   1    -0.06  -0.09   0.69    -0.04  -0.01   0.38     0.03   0.04  -0.33
  14   1    -0.08   0.41   0.17     0.13  -0.66  -0.33     0.04  -0.22  -0.09
  15   1    -0.08   0.03  -0.02    -0.15   0.06  -0.06    -0.16   0.06  -0.04
  16   1     0.04   0.06  -0.46     0.02   0.02  -0.16     0.06   0.08  -0.68
  17   1     0.00   0.00  -0.01     0.00   0.00  -0.02     0.01   0.01  -0.09
  18   1    -0.00   0.00  -0.00    -0.00   0.00  -0.00    -0.00   0.00  -0.00
  19   1     0.00   0.00   0.00     0.00   0.00   0.00    -0.00   0.00   0.00
  20   1     0.00   0.00   0.00     0.00   0.00   0.00     0.00   0.00   0.00
  21   1    -0.03  -0.02   0.01     0.33   0.27  -0.08    -0.37  -0.30   0.09
  22   1    -0.01  -0.00   0.03    -0.02  -0.01   0.04     0.02   0.02  -0.08
  23   1    -0.00  -0.00  -0.00     0.00   0.00  -0.00    -0.00  -0.00   0.00
  24   1    -0.00  -0.00  -0.00     0.00   0.00   0.00    -0.00  -0.00  -0.00
  25   1    -0.00   0.00  -0.00     0.00  -0.00  -0.00    -0.00   0.00   0.00
  26   1    -0.00   0.00  -0.00     0.00  -0.00   0.00    -0.00   0.00  -0.00
                     64                     65                     66
                        a                      a                      a 
 Frequencies --  2996.5642              3007.0677              3231.7973
 Red. masses --     1.6690                 1.6334                 1.8631
 Frc consts  --     0.0000                 0.0000                 0.0000
 IR Inten    --    61.8900                41.3599               182.4963
 Raman Activ --     0.0000                 0.0000                 0.0000
 Depolar     --     0.0000                 0.0000                 0.0000
 Atom AN      X      Y      Z        X      Y      Z        X      Y      Z
   1   6     0.00   0.08  -0.08    -0.01   0.04  -0.01    -0.00  -0.00   0.00
   2   6     0.01   0.01  -0.11    -0.22   0.08  -0.04     0.00  -0.00  -0.00
   3   6     0.00   0.00  -0.01    -0.01   0.00  -0.00     0.00  -0.00   0.00
   4   6    -0.00  -0.00  -0.00     0.00  -0.00   0.00     0.01  -0.02  -0.01
   5   8     0.00  -0.00   0.00     0.00  -0.00   0.00     0.21  -0.08   0.07
   6   8     0.00  -0.00   0.00     0.00  -0.00   0.00    -0.01   0.01  -0.00
   7   7     0.00   0.00   0.00     0.00  -0.00  -0.00    -0.00  -0.00  -0.00
   8   6     0.14   0.12  -0.03     0.01   0.00  -0.00    -0.00  -0.00  -0.00
   9   7     0.00   0.01   0.00    -0.00   0.00  -0.00     0.01  -0.00   0.00
  10   6     0.00   0.00  -0.00     0.00   0.00  -0.00    -0.01   0.01  -0.00
  11   7     0.00  -0.00  -0.00    -0.00  -0.00  -0.00     0.00  -0.00   0.00
  12   7    -0.00  -0.00   0.00    -0.00   0.00  -0.00     0.01  -0.01  -0.00
  13   1    -0.04  -0.03   0.41    -0.01  -0.00   0.08     0.00   0.00  -0.00
  14   1     0.05  -0.26  -0.14     0.03  -0.13  -0.07    -0.00   0.00   0.00
  15   1    -0.01   0.01  -0.02     0.80  -0.31   0.36    -0.00   0.00  -0.00
  16   1    -0.03  -0.05   0.40    -0.01   0.04  -0.22    -0.00  -0.00   0.00
  17   1    -0.00  -0.00   0.04    -0.00  -0.00   0.01     0.00   0.00  -0.01
  18   1    -0.00  -0.00   0.00    -0.00   0.00  -0.00     0.03  -0.02   0.01
  19   1    -0.00  -0.00  -0.00    -0.00   0.00   0.00    -0.00   0.00   0.00
  20   1    -0.00  -0.00  -0.00    -0.00   0.00   0.00     0.00  -0.00  -0.00
  21   1    -0.55  -0.44   0.13    -0.02  -0.02   0.00     0.00   0.00  -0.00
  22   1     0.03   0.02  -0.04     0.00   0.00   0.00    -0.00  -0.00  -0.00
  23   1    -0.00  -0.00   0.00    -0.00   0.00   0.00    -0.01   0.00   0.00
  24   1    -0.00  -0.00  -0.00     0.00  -0.00   0.00    -0.00   0.00  -0.00
  25   1     0.00  -0.00   0.00     0.00  -0.00   0.00    -0.02  -0.00  -0.00
  26   1    -0.00   0.00  -0.00    -0.00   0.00  -0.00    -0.86   0.38  -0.24
                     67                     68                     69
                        a                      a                      a 
 Frequencies --  3380.6546              3394.9440              3410.4866
 Red. masses --     1.5480                 1.8638                 2.0391
 Frc consts  --     0.0000                 0.0000                 0.0000
 IR Inten    --     6.6107                23.9165                 1.3799
 Raman Activ --     0.0000                 0.0000                 0.0000
 Depolar     --     0.0000                 0.0000                 0.0000
 Atom AN      X      Y      Z        X      Y      Z        X      Y      Z
   1   6    -0.00   0.00  -0.00    -0.00  -0.00  -0.00    -0.00   0.00   0.00
   2   6     0.00  -0.00  -0.00    -0.00   0.00  -0.00     0.00   0.00   0.00
   3   6    -0.00   0.01  -0.01    -0.00   0.00  -0.00    -0.00   0.00   0.01
   4   6    -0.00  -0.00  -0.00    -0.00   0.00   0.00     0.00  -0.00   0.00
   5   8     0.00  -0.00   0.00    -0.00   0.00  -0.00     0.00  -0.00   0.00
   6   8    -0.00   0.00  -0.00     0.01  -0.00   0.00     0.00  -0.00   0.00
   7   7    -0.00   0.14  -0.15     0.00   0.00  -0.00    -0.05   0.16   0.23
   8   6     0.00   0.00  -0.00     0.00  -0.00   0.00    -0.00   0.00   0.00
   9   7    -0.00   0.00   0.00    -0.00  -0.00  -0.00    -0.00   0.00  -0.00
  10   6    -0.00  -0.00  -0.00     0.01   0.01  -0.00    -0.00   0.00   0.00
  11   7    -0.00  -0.00   0.00    -0.00   0.00  -0.00     0.00  -0.00   0.00
  12   7    -0.00   0.00  -0.00     0.24  -0.09   0.00    -0.00   0.00   0.00
  13   1    -0.00  -0.00   0.00    -0.00   0.00  -0.00     0.00   0.00  -0.00
  14   1     0.00  -0.00   0.00     0.00  -0.00  -0.00     0.00  -0.00  -0.00
  15   1     0.00  -0.00  -0.00     0.00  -0.00   0.00     0.00  -0.00   0.00
  16   1     0.00   0.00   0.00    -0.00   0.00   0.00    -0.00  -0.00  -0.01
  17   1     0.00  -0.00   0.01     0.00  -0.00  -0.00    -0.00  -0.00  -0.01
  18   1     0.01  -0.00   0.00    -0.03   0.02  -0.01    -0.01   0.01  -0.00
  19   1     0.09  -0.42  -0.26     0.00  -0.00  -0.00     0.16  -0.72  -0.38
  20   1    -0.06  -0.12   0.83    -0.00  -0.00   0.00     0.02   0.10  -0.47
  21   1    -0.00  -0.00   0.00     0.00   0.00  -0.00     0.00   0.00  -0.00
  22   1    -0.00  -0.00   0.00    -0.00   0.00   0.00    -0.00  -0.00  -0.00
  23   1     0.00  -0.00  -0.00     0.00  -0.00   0.00    -0.00   0.00   0.00
  24   1    -0.00   0.00  -0.00     0.00  -0.02   0.01    -0.00   0.00  -0.00
  25   1     0.00  -0.00  -0.00    -0.92   0.28   0.01     0.00  -0.00  -0.00
  26   1    -0.00   0.00  -0.00     0.01  -0.01   0.00    -0.00   0.00  -0.00
                     70                     71                     72
                        a                      a                      a 
 Frequencies --  3450.6126              3457.9279              3513.0856
 Red. masses --     1.8599                 1.4704                 2.1491
 Frc consts  --     0.0000                 0.0000                 0.0000
 IR Inten    --    54.8182                 3.0009                 1.0793
 Raman Activ --     0.0000                 0.0000                 0.0000
 Depolar     --     0.0000                 0.0000                 0.0000
 Atom AN      X      Y      Z        X      Y      Z        X      Y      Z
   1   6     0.00   0.00  -0.00    -0.00  -0.00   0.00    -0.00   0.00   0.00
   2   6    -0.00   0.00   0.00    -0.00   0.00   0.00    -0.00   0.00   0.00
   3   6     0.00   0.00  -0.00     0.00   0.00  -0.00    -0.00   0.00  -0.00
   4   6    -0.00   0.01  -0.01    -0.00   0.00  -0.00    -0.00  -0.00   0.00
   5   8    -0.01   0.00  -0.00    -0.00   0.00  -0.00    -0.00   0.00  -0.00
   6   8    -0.20   0.11  -0.05    -0.02   0.01  -0.01    -0.00   0.00  -0.00
   7   7    -0.00   0.00   0.00     0.00   0.00   0.00     0.00  -0.00   0.00
   8   6     0.00   0.00  -0.00    -0.00  -0.00   0.00    -0.00  -0.00   0.00
   9   7    -0.00   0.00   0.00    -0.00   0.00  -0.00    -0.00   0.00  -0.00
  10   6     0.00  -0.00   0.00     0.00  -0.00  -0.01     0.01  -0.01   0.00
  11   7    -0.02  -0.00   0.01     0.13   0.06  -0.12     0.19  -0.20   0.09
  12   7     0.01  -0.00  -0.00    -0.00  -0.00   0.00     0.00  -0.00  -0.00
  13   1     0.00  -0.00   0.00    -0.00  -0.00  -0.00     0.00   0.00  -0.00
  14   1     0.00  -0.00  -0.00    -0.00   0.00   0.00     0.00  -0.00  -0.00
  15   1     0.00  -0.00   0.00     0.00  -0.00   0.00     0.00  -0.00   0.00
  16   1     0.00  -0.00  -0.00     0.00   0.00  -0.00    -0.00  -0.00   0.00
  17   1    -0.00  -0.00   0.00    -0.00  -0.00   0.00    -0.00   0.00  -0.00
  18   1     0.82  -0.44   0.26     0.08  -0.04   0.03     0.01  -0.00   0.00
  19   1     0.00  -0.01  -0.00     0.00  -0.00  -0.00    -0.00   0.00   0.00
  20   1     0.00   0.00  -0.01     0.00   0.00  -0.00    -0.00   0.00  -0.00
  21   1    -0.00  -0.00   0.00     0.00  -0.00   0.00     0.00   0.00  -0.00
  22   1    -0.00   0.00   0.00     0.00   0.00   0.00     0.00   0.00   0.00
  23   1     0.07  -0.03  -0.01    -0.67   0.29   0.08    -0.57   0.23   0.10
  24   1    -0.02   0.04  -0.03     0.17  -0.50   0.37    -0.16   0.55  -0.44
  25   1    -0.03   0.01   0.00     0.01  -0.00  -0.00    -0.02   0.01  -0.00
  26   1     0.03  -0.01   0.01     0.01  -0.00   0.00     0.01  -0.00   0.00
