      -----------------------------------------------------------      
     |                   =====================                   |     
     |                           x T B                           |     
     |                   =====================                   |     
     |                         S. Grimme                         |     
     |          Mulliken Center for Theoretical Chemistry        |     
     |                    University of Bonn                     |     
      -----------------------------------------------------------      

   * xtb version 6.6.0 (8843059) compiled by 'stahn@majestix' on 2023-02-09

   xtb is free software: you can redistribute it and/or modify it under
   the terms of the GNU Lesser General Public License as published by
   the Free Software Foundation, either version 3 of the License, or
   (at your option) any later version.
   
   xtb is distributed in the hope that it will be useful,
   but WITHOUT ANY WARRANTY; without even the implied warranty of
   MERCHANTABILITY or FITNESS FOR A PARTICULAR PURPOSE.  See the
   GNU Lesser General Public License for more details.
   
   Cite this work as:
   * C. Bannwarth, E. Caldeweyher, S. Ehlert, A. Hansen, P. Pracht,
     J. Seibert, S. Spicher, S. Grimme, WIREs Comput. Mol. Sci., 2020, 11,
     e01493. DOI: 10.1002/wcms.1493
   
   for GFN2-xTB:
   * C. Bannwarth, S. Ehlert and S. Grimme., J. Chem. Theory Comput., 2019,
     15, 1652-1671. DOI: 10.1021/acs.jctc.8b01176
   for GFN1-xTB:
   * S. Grimme, C. Bannwarth, P. Shushkov, J. Chem. Theory Comput., 2017,
     13, 1989-2009. DOI: 10.1021/acs.jctc.7b00118
   for GFN0-xTB:
   * P. Pracht, E. Caldeweyher, S. Ehlert, S. Grimme, ChemRxiv, 2019, preprint.
     DOI: 10.26434/chemrxiv.8326202.v1
   for GFN-FF:
   * S. Spicher and S. Grimme, Angew. Chem. Int. Ed., 2020, 59, 15665-15673.
     DOI: 10.1002/anie.202004239
   
   for ALPB and GBSA implicit solvation:
   * S. Ehlert, M. Stahn, S. Spicher, S. Grimme, J. Chem. Theory Comput.,
     2021, 17, 4250-4261. DOI: 10.1021/acs.jctc.1c00471
   
   for DFT-D4:
   * E. Caldeweyher, C. Bannwarth and S. Grimme, J. Chem. Phys., 2017,
     147, 034112. DOI: 10.1063/1.4993215
   * E. Caldeweyher, S. Ehlert, A. Hansen, H. Neugebauer, S. Spicher,
     C. Bannwarth and S. Grimme, J. Chem. Phys., 2019, 150, 154122.
     DOI: 10.1063/1.5090222
   * E. Caldeweyher, J.-M. Mewes, S. Ehlert and S. Grimme, Phys. Chem. Chem. Phys.
     2020, 22, 8499-8512. DOI: 10.1039/D0CP00502A
   
   for sTDA-xTB:
   * S. Grimme and C. Bannwarth, J. Chem. Phys., 2016, 145, 054103.
     DOI: 10.1063/1.4959605
   
   in the mass-spec context:
   * V. Asgeirsson, C. Bauer and S. Grimme, Chem. Sci., 2017, 8, 4879.
     DOI: 10.1039/c7sc00601b
   * J. Koopman and S. Grimme, ACS Omega 2019, 4, 12, 15120-15133.
     DOI: 10.1021/acsomega.9b02011
   
   for metadynamics refer to:
   * S. Grimme, J. Chem. Theory Comput., 2019, 155, 2847-2862
     DOI: 10.1021/acs.jctc.9b00143
   
   for SPH calculations refer to:
   * S. Spicher and S. Grimme, J. Chem. Theory Comput., 2021, 17, 1701-1714
     DOI: 10.1021/acs.jctc.0c01306
   
   with help from (in alphabetical order)
   P. Atkinson, C. Bannwarth, F. Bohle, G. Brandenburg, E. Caldeweyher
   M. Checinski, S. Dohm, S. Ehlert, S. Ehrlich, I. Gerasimov, C. Hölzer
   A. Katbashev, J. Koopman, C. Lavigne, S. Lehtola, F. März, M. Müller,
   F. Musil, H. Neugebauer, J. Pisarek, C. Plett, P. Pracht, F. Pultar,
   J. Seibert, P. Shushkov, S. Spicher, M. Stahn, M. Steiner, T. Strunk,
   J. Stückrath, T. Rose, and J. Unsleber
   
 * started run on 2025/07/30 at 12:34:42.133     

           -------------------------------------------------
          |                Calculation Setup                |
           -------------------------------------------------

          program call               : xtb --gfn2 in.xyz --ohess vtight
          coordinate file            : in.xyz
          omp threads                :                     8

   ID    Z sym.   atoms
    1    6 C      1-4, 8, 10
    2    8 O      5, 6
    3    7 N      7, 9, 11, 12
    4    1 H      13-26

           -------------------------------------------------
          |                 G F N 2 - x T B                 |
           -------------------------------------------------

        Reference                      10.1021/acs.jctc.8b01176
      * Hamiltonian:
        H0-scaling (s, p, d)           1.850000    2.230000    2.230000
        zeta-weighting                 0.500000
      * Dispersion:
        s8                             2.700000
        a1                             0.520000
        a2                             5.000000
        s9                             5.000000
      * Repulsion:
        kExp                           1.500000    1.000000
        rExp                           1.000000
      * Coulomb:
        alpha                          2.000000
        third order                    shell-resolved
        anisotropic                    true
        a3                             3.000000
        a5                             4.000000
        cn-shift                       1.200000
        cn-exp                         4.000000
        max-rad                        5.000000


          ...................................................
          :                      SETUP                      :
          :.................................................:
          :  # basis functions                  62          :
          :  # atomic orbitals                  62          :
          :  # shells                           38          :
          :  # electrons                        70          :
          :  max. iterations                   250          :
          :  Hamiltonian                  GFN2-xTB          :
          :  restarted?                      false          :
          :  GBSA solvation                  false          :
          :  PC potential                    false          :
          :  electronic temp.          300.0000000     K    :
          :  accuracy                    1.0000000          :
          :  -> integral cutoff          0.2500000E+02      :
          :  -> integral neglect         0.1000000E-07      :
          :  -> SCF convergence          0.1000000E-05 Eh   :
          :  -> wf. convergence          0.1000000E-03 e    :
          :  Broyden damping             0.4000000          :
          ...................................................

 iter      E             dE          RMSdq      gap      omega  full diag
   1    -40.2044993 -0.402045E+02  0.370E+00    4.81       0.0  T
   2    -40.2480940 -0.435947E-01  0.208E+00    4.96       1.0  T
   3    -40.2503897 -0.229572E-02  0.737E-01    4.29       1.0  T
   4    -40.2516282 -0.123847E-02  0.207E-01    4.28       1.0  T
   5    -40.2518894 -0.261200E-03  0.817E-02    4.25       1.0  T
   6    -40.2519519 -0.625133E-04  0.352E-02    4.28       1.0  T
   7    -40.2519529 -0.103547E-05  0.897E-03    4.29       2.2  T
   8    -40.2519536 -0.662881E-06  0.295E-03    4.29       6.6  T
   9    -40.2519536 -0.291240E-07  0.138E-03    4.29      14.2  T
  10    -40.2519536 -0.381254E-08  0.411E-04    4.29      47.7  T
  11    -40.2519536 -0.729216E-09  0.136E-04    4.29     143.8  T

   *** convergence criteria satisfied after 11 iterations ***

         #    Occupation            Energy/Eh            Energy/eV
      -------------------------------------------------------------
         1        2.0000           -0.6993807             -19.0311
       ...           ...                  ...                  ...
        29        2.0000           -0.4323398             -11.7646
        30        2.0000           -0.4298400             -11.6965
        31        2.0000           -0.4233511             -11.5200
        32        2.0000           -0.4052896             -11.0285
        33        2.0000           -0.3905181             -10.6265
        34        2.0000           -0.3821622             -10.3992
        35        2.0000           -0.3579209              -9.7395 (HOMO)
        36                         -0.2004451              -5.4544 (LUMO)
        37                         -0.0170084              -0.4628
        38                          0.0277397               0.7548
        39                          0.0399000               1.0857
        40                          0.0592009               1.6109
       ...                                ...                  ...
        62                          0.5553450              15.1117
      -------------------------------------------------------------
                  HL-Gap            0.1574758 Eh            4.2851 eV
             Fermi-level           -0.2791830 Eh           -7.5970 eV

 SCC (total)                   0 d,  0 h,  0 min,  0.017 sec
 SCC setup                      ...        0 min,  0.000 sec (  1.332%)
 Dispersion                     ...        0 min,  0.000 sec (  1.361%)
 classical contributions        ...        0 min,  0.000 sec (  0.641%)
 integral evaluation            ...        0 min,  0.002 sec (  9.454%)
 iterations                     ...        0 min,  0.010 sec ( 55.554%)
 molecular gradient             ...        0 min,  0.005 sec ( 30.928%)
 printout                       ...        0 min,  0.000 sec (  0.600%)

         :::::::::::::::::::::::::::::::::::::::::::::::::::::
         ::                     SUMMARY                     ::
         :::::::::::::::::::::::::::::::::::::::::::::::::::::
         :: total energy             -39.834233366285 Eh    ::
         :: gradient norm              0.000080846692 Eh/a0 ::
         :: HOMO-LUMO gap              4.285135296820 eV    ::
         ::.................................................::
         :: SCC energy               -40.251953628264 Eh    ::
         :: -> isotropic ES            0.098928360953 Eh    ::
         :: -> anisotropic ES         -0.005500541474 Eh    ::
         :: -> anisotropic XC          0.015865607697 Eh    ::
         :: -> dispersion             -0.023122245711 Eh    ::
         :: repulsion energy           0.417515710363 Eh    ::
         :: add. restraining           0.000000000000 Eh    ::
         :: total charge              -0.000000000000 e     ::
         :::::::::::::::::::::::::::::::::::::::::::::::::::::

      ----------------------------------------------------------- 
     |                   =====================                   |
     |                        A N C O P T                        |
     |                   =====================                   |
     |               Approximate Normal Coordinate               |
     |                Rational Function Optimizer                |
      ----------------------------------------------------------- 

          ...................................................
          :                      SETUP                      :
          :.................................................:
          :   optimization level         verytight          :
          :   max. optcycles                   520          :
          :   ANC micro-cycles                  20          :
          :   degrees of freedom                72          :
          :.................................................:
          :   RF solver                   davidson          :
          :   write xtbopt.log                true          :
          :   linear?                        false          :
          :   energy convergence         0.1000000E-06 Eh   :
          :   grad. convergence          0.2000000E-03 Eh/α :
          :   maxmium RF displ.          1.0000000          :
          :   Hlow (freq-cutoff)         0.1000000E-01      :
          :   Hmax (freq-cutoff)         5.0000000          :
          :   S6 in model hess.         20.0000000          :
          ...................................................

generating ANC from model Hessian ...
Using Lindh-Hessian (1995)
 Shifting diagonal of input Hessian by   7.618174265128991E-003
 Lowest  eigenvalues of input Hessian
    0.000000    0.000000    0.000000    0.000000    0.000000    0.000000
    0.010000    0.011137    0.013472    0.015539    0.017595    0.020704
    0.021356    0.024289    0.026746    0.027952    0.029142    0.032500
 Highest eigenvalues
    1.472133    1.506649    1.562560    1.664689    2.027933    2.242292
 

........................................................................
.............................. CYCLE    1 ..............................
........................................................................

 iter      E             dE          RMSdq      gap      omega  full diag
   1    -40.2519536 -0.402520E+02  0.568E-05    4.29       0.0  T
   2    -40.2519536 -0.768807E-11  0.343E-05    4.29     572.2  T
   3    -40.2519536 -0.561329E-12  0.134E-05    4.29    1459.4  T
     SCC iter.                  ...        0 min,  0.003 sec
     gradient                   ...        0 min,  0.005 sec
 * total energy  :   -39.8342334 Eh     change       -0.5325518E-10 Eh
   gradient norm :     0.0000811 Eh/α   predicted     0.0000000E+00 (-100.00%)
   displ. norm   :     0.0001217 α      lambda        0.0000000E+00
   maximum displ.:     0.0000638 α      in ANC's #62, #67, #64, ...

   *** GEOMETRY OPTIMIZATION CONVERGED AFTER 1 ITERATIONS ***

------------------------------------------------------------------------
 total energy gain   :        -0.0000000 Eh       -0.0000 kcal/mol
 total RMSD          :         0.0000000 a0        0.0000 Å
 total power (kW/mol):        -0.0000001 (step)   -0.0000 (real)
------------------------------------------------------------------------

 ANCopt (total)                0 d,  0 h,  0 min,  0.027 sec
 optimizer setup                ...        0 min,  0.000 sec (  0.317%)
 model hessian                  ...        0 min,  0.016 sec ( 60.322%)
 ANC generation                 ...        0 min,  0.001 sec (  2.025%)
 coordinate transformation      ...        0 min,  0.000 sec (  0.030%)
 single point calculation       ...        0 min,  0.010 sec ( 36.615%)
 optimization log               ...        0 min,  0.000 sec (  0.324%)
 hessian update                 ...        0 min,  0.000 sec (  0.007%)
 rational function              ...        0 min,  0.000 sec (  0.104%)

================
 final structure:
================
26
 xtb: 6.6.0 (8843059)
C           -0.90215800000000        2.24145000000000       -0.15144500000000
C           -2.04069500000000        1.27734400000000        0.14631900000000
C           -1.73478500000000       -0.07236700000000       -0.49060100000000
C           -0.36830700000000       -0.63269200000000       -0.00895200000000
O           -0.11209200000000       -1.72851300000000       -0.81109000000000
O           -0.46903900000000       -0.99452100000000        1.33659500000000
N           -2.81139900000000       -1.00453900000000       -0.23532800000000
C            0.38817600000000        1.67007100000000        0.41810900000000
N            0.69375800000000        0.37574600000000       -0.18399200000000
C            1.98972800000000       -0.08939500000000       -0.06442500000000
N            2.97929100000000        0.82344700000000       -0.35828600000000
N            2.21005100000000       -1.29699300000000        0.29871900000000
H           -0.80250600000000        2.37343300000000       -1.23030000000000
H           -1.09149400000000        3.21484300000000        0.30314600000000
H           -2.98746100000000        1.64275000000000       -0.24989500000000
H           -2.14445400000000        1.14250700000000        1.22424900000000
H           -1.64180900000000        0.04390300000000       -1.57621100000000
H            0.36283900000000       -1.43406700000000        1.56983900000000
H           -2.59798600000000       -1.88484300000000       -0.69371100000000
H           -2.84961500000000       -1.19014000000000        0.76317000000000
H            1.22199700000000        2.34995200000000        0.24323700000000
H            0.27193900000000        1.54377700000000        1.50450700000000
H            3.89789300000000        0.43501800000000       -0.50427100000000
H            2.74310500000000        1.58271100000000       -0.97542500000000
H            3.18698300000000       -1.56784700000000        0.27425700000000
H            0.76292300000000       -2.07499800000000       -0.54004100000000
 
 Bond Distances (Angstroems)
 ---------------------------
C1-C2=1.5213         C1-C8=1.5218         C1-H13=1.0915        C1-H14=1.0909        C2-C1=1.5213         C2-C3=1.5235         
C2-H15=1.0894        C2-H16=1.0913        C3-C2=1.5235         C3-C4=1.5535         C3-N7=1.4468         C3-H17=1.0958        
C4-C3=1.5535         C4-O5=1.3820         C4-O6=1.3970         C4-N9=1.4750         O5-C4=1.3820         O5-H26=0.9794        
O6-C4=1.3970         O6-H18=0.9693        N7-C3=1.4468         N7-H19=1.0152        N7-H20=1.0163        C8-C1=1.5218         
C8-N9=1.4599         C8-H21=1.0900        C8-H22=1.0999        N9-C4=1.4750         N9-C8=1.4599         N9-C10=1.3821        
C10-N9=1.3821        C10-N11=1.3780       C10-N12=1.2801       N11-C10=1.3780       N11-H23=1.0080       N11-H24=1.0065       
N12-C10=1.2801       N12-H25=1.0141       H13-C1=1.0915        H14-C1=1.0909        H15-C2=1.0894        H16-C2=1.0913        
H17-C3=1.0958        H18-O6=0.9693        H19-N7=1.0152        H20-N7=1.0163        H21-C8=1.0900        H22-C8=1.0999        
H23-N11=1.0080       H24-N11=1.0065       H25-N12=1.0141       H26-O5=0.9794        
 C  H  Rav=1.0927 sigma=0.0035  Rmin=1.0894  Rmax=1.0999     7
 C  C  Rav=1.5300 sigma=0.0136  Rmin=1.5213  Rmax=1.5535     4
 N  H  Rav=1.0120 sigma=0.0040  Rmin=1.0065  Rmax=1.0163     5
 N  C  Rav=1.4036 sigma=0.0664  Rmin=1.2801  Rmax=1.4750     6
 O  H  Rav=0.9744 sigma=0.0050  Rmin=0.9693  Rmax=0.9794     2
 O  C  Rav=1.3895 sigma=0.0075  Rmin=1.3820  Rmax=1.3970     2
 
 selected bond angles (degree)
 --------------------
C8-C1-C2=108.87                H13-C1-C2=109.78               H13-C1-C8=109.75               H14-C1-C2=110.73               
H14-C1-C8=109.04               H14-C1-H13=108.65              C3-C2-C1=109.23                H15-C2-C1=111.51               
H15-C2-C3=108.64               H16-C2-C1=110.05               H16-C2-C3=108.82               H16-C2-H15=108.55              
C4-C3-C2=111.50                N7-C3-C2=110.34                N7-C3-C4=111.56                H17-C3-C2=109.71               
H17-C3-C4=105.71               H17-C3-N7=107.84               O5-C4-C3=105.61                O6-C4-C3=109.19                
O6-C4-O5=111.53                N9-C4-C3=110.49                N9-C4-O5=109.86                N9-C4-O6=110.08                
H26-O5-C4=106.59               H18-O6-C4=106.70               H19-N7-C3=108.82               H20-N7-C3=108.60               
H20-N7-H19=107.05              N9-C8-C1=110.86                H21-C8-C1=110.76               H21-C8-N9=109.07               
H22-C8-C1=108.86               H22-C8-N9=109.13               H22-C8-H21=108.12              C8-N9-C4=113.99                
C10-N9-C4=115.77               C10-N9-C8=117.32               N11-C10-N9=115.59              N12-C10-N9=120.23              
N12-C10-N11=124.18             
 
 selected dihedral angles (degree)
 ---------------------------------
C3-C2-C1-C8=300.46            C3-C2-C1-H13= 60.62           C3-C2-C1-H14=180.59           H15-C2-C1-C8=180.37           
H15-C2-C1-H13=300.53          H15-C2-C1-H14= 60.51          H16-C2-C1-C8= 59.86           H16-C2-C1-H13=180.02          
H16-C2-C1-H14=300.00          C4-C3-C2-C1= 56.12            C4-C3-C2-H15=177.95           C4-C3-C2-H16=295.96           
N7-C3-C2-C1=180.68            N7-C3-C2-H15=302.51           N7-C3-C2-H16= 60.52           H17-C3-C2-C1=299.35           
H17-C3-C2-H15= 61.19          H17-C3-C2-H16=179.19          O5-C4-C3-C2=189.52            O5-C4-C3-N7= 65.64            
O5-C4-C3-H17=308.69           O6-C4-C3-C2= 69.47            O6-C4-C3-N7=305.59            O6-C4-C3-H17=188.64           
N9-C4-C3-C2=308.27            N9-C4-C3-N7=184.39            N9-C4-C3-H17= 67.44           H26-O5-C4-C3=178.06           
H26-O5-C4-O6=296.56           H26-O5-C4-N9= 58.90           H18-O6-C4-C3=173.40           H18-O6-C4-O5= 57.06           
H18-O6-C4-N9=294.85           H19-N7-C3-C2=178.22           H19-N7-C3-C4=302.75           H19-N7-C3-H17= 58.41          
H20-N7-C3-C2=294.42           H20-N7-C3-C4= 58.95           H20-N7-C3-H17=174.61          N9-C8-C1-C2= 60.19            
N9-C8-C1-H13=300.01           N9-C8-C1-H14=181.10           H21-C8-C1-C2=181.41           H21-C8-C1-H13= 61.23          
H21-C8-C1-H14=302.32          H22-C8-C1-C2=300.14           H22-C8-C1-H13=179.97          H22-C8-C1-H14= 61.06          
C8-N9-C4-C3= 52.73            C8-N9-C4-O5=168.86            C8-N9-C4-O6=292.06            C10-N9-C4-C3=193.32           
C10-N9-C4-O5=309.46           C10-N9-C4-O6= 72.65           C4-N9-C8-C1=302.13            C4-N9-C8-H21=179.93           
C4-N9-C8-H22= 62.02           C10-N9-C8-C1=162.18           C10-N9-C8-H21= 39.97          C10-N9-C8-H22=282.06          
N11-C10-N9-C4=173.84          N11-C10-N9-C8=313.08          N12-C10-N9-C4=353.83          N12-C10-N9-C8=133.08          
           -------------------------------------------------
          |                Final Singlepoint                |
           -------------------------------------------------

          ...................................................
          :                      SETUP                      :
          :.................................................:
          :  # basis functions                  62          :
          :  # atomic orbitals                  62          :
          :  # shells                           38          :
          :  # electrons                        70          :
          :  max. iterations                   250          :
          :  Hamiltonian                  GFN2-xTB          :
          :  restarted?                      false          :
          :  GBSA solvation                  false          :
          :  PC potential                    false          :
          :  electronic temp.          300.0000000     K    :
          :  accuracy                    1.0000000          :
          :  -> integral cutoff          0.2500000E+02      :
          :  -> integral neglect         0.1000000E-07      :
          :  -> SCF convergence          0.1000000E-05 Eh   :
          :  -> wf. convergence          0.1000000E-03 e    :
          :  Broyden damping             0.4000000          :
          ...................................................

 iter      E             dE          RMSdq      gap      omega  full diag
   1    -40.2519536 -0.402520E+02  0.321E-06    4.29       0.0  T
   2    -40.2519536 -0.852651E-13  0.180E-06    4.29   10904.6  T
   3    -40.2519536  0.923706E-13  0.102E-06    4.29   19307.7  T

   *** convergence criteria satisfied after 3 iterations ***

         #    Occupation            Energy/Eh            Energy/eV
      -------------------------------------------------------------
         1        2.0000           -0.6993795             -19.0311
       ...           ...                  ...                  ...
        29        2.0000           -0.4323397             -11.7646
        30        2.0000           -0.4298393             -11.6965
        31        2.0000           -0.4233511             -11.5200
        32        2.0000           -0.4052890             -11.0285
        33        2.0000           -0.3905172             -10.6265
        34        2.0000           -0.3821615             -10.3991
        35        2.0000           -0.3579210              -9.7395 (HOMO)
        36                         -0.2004441              -5.4544 (LUMO)
        37                         -0.0170077              -0.4628
        38                          0.0277402               0.7548
        39                          0.0399006               1.0857
        40                          0.0592013               1.6110
       ...                                ...                  ...
        62                          0.5553460              15.1117
      -------------------------------------------------------------
                  HL-Gap            0.1574769 Eh            4.2852 eV
             Fermi-level           -0.2791826 Eh           -7.5969 eV

 SCC (total)                   0 d,  0 h,  0 min,  0.010 sec
 SCC setup                      ...        0 min,  0.000 sec (  0.985%)
 Dispersion                     ...        0 min,  0.000 sec (  1.602%)
 classical contributions        ...        0 min,  0.000 sec (  0.738%)
 integral evaluation            ...        0 min,  0.001 sec ( 14.725%)
 iterations                     ...        0 min,  0.002 sec ( 24.073%)
 molecular gradient             ...        0 min,  0.005 sec ( 54.188%)
 printout                       ...        0 min,  0.000 sec (  3.344%)

         :::::::::::::::::::::::::::::::::::::::::::::::::::::
         ::                     SUMMARY                     ::
         :::::::::::::::::::::::::::::::::::::::::::::::::::::
         :: total energy             -39.834233366339 Eh    ::
         :: gradient norm              0.000081139602 Eh/a0 ::
         :: HOMO-LUMO gap              4.285164655216 eV    ::
         ::.................................................::
         :: SCC energy               -40.251953628318 Eh    ::
         :: -> isotropic ES            0.098929076194 Eh    ::
         :: -> anisotropic ES         -0.005500303874 Eh    ::
         :: -> anisotropic XC          0.015865704293 Eh    ::
         :: -> dispersion             -0.023122248007 Eh    ::
         :: repulsion energy           0.417515710363 Eh    ::
         :: add. restraining           0.000000000000 Eh    ::
         :: total charge               0.000000000000 e     ::
         :::::::::::::::::::::::::::::::::::::::::::::::::::::

           ------------------------------------------------- 
          |                Numerical Hessian                |
           ------------------------------------------------- 
step length          :   0.00500
SCC accuracy         :   0.30000
Hessian scale factor :   1.00000
frozen atoms in %    :   0.00000    0
RMS gradient         :   0.00008
estimated CPU  time      0.57 min
estimated wall time      0.07 min

writing file <hessian>.

 projected vibrational frequencies (cm⁻¹)
eigval :       -0.00    -0.00    -0.00     0.00     0.00     0.00
eigval :       61.99    83.38   112.22   180.60   211.03   237.07
eigval :      292.40   311.77   317.57   340.38   370.27   401.40
eigval :      413.76   432.52   471.32   491.88   511.54   528.67
eigval :      567.68   578.19   618.58   649.25   672.91   749.56
eigval :      770.92   869.54   888.71   911.29   949.67   999.98
eigval :     1007.71  1024.88  1032.41  1056.77  1075.72  1095.59
eigval :     1117.07  1128.34  1143.24  1166.62  1178.00  1200.33
eigval :     1215.90  1233.67  1262.66  1295.88  1312.95  1336.25
eigval :     1344.50  1360.42  1364.67  1392.90  1466.45  1471.28
eigval :     1483.33  1493.23  1561.01  1670.32  2877.17  2937.11
eigval :     2980.25  2988.16  2993.06  2996.56  3007.07  3231.80
eigval :     3380.65  3394.94  3410.49  3450.61  3457.93  3513.09
           -------------------------------------------------
          |                Property Printout                |
           -------------------------------------------------

    * Orbital Energies and Occupations

         #    Occupation            Energy/Eh            Energy/eV
      -------------------------------------------------------------
         1        2.0000           -0.6993795             -19.0311
       ...           ...                  ...                  ...
        23        2.0000           -0.4871271             -13.2554
        24        2.0000           -0.4845859             -13.1863
        25        2.0000           -0.4776145             -12.9966
        26        2.0000           -0.4560717             -12.4103
        27        2.0000           -0.4457729             -12.1301
        28        2.0000           -0.4402221             -11.9791
        29        2.0000           -0.4323397             -11.7646
        30        2.0000           -0.4298393             -11.6965
        31        2.0000           -0.4233511             -11.5200
        32        2.0000           -0.4052890             -11.0285
        33        2.0000           -0.3905172             -10.6265
        34        2.0000           -0.3821615             -10.3991
        35        2.0000           -0.3579210              -9.7395 (HOMO)
        36                         -0.2004441              -5.4544 (LUMO)
        37                         -0.0170077              -0.4628
        38                          0.0277402               0.7548
        39                          0.0399006               1.0857
        40                          0.0592013               1.6110
        41                          0.0781682               2.1271
        42                          0.0820431               2.2325
        43                          0.1028401               2.7984
        44                          0.1153531               3.1389
        45                          0.1219191               3.3176
        46                          0.1291374               3.5140
       ...                                ...                  ...
        62                          0.5553460              15.1117
      -------------------------------------------------------------
                  HL-Gap            0.1574769 Eh            4.2852 eV
             Fermi-level           -0.2791826 Eh           -7.5969 eV

     #   Z          covCN         q      C6AA      α(0)
     1   6 C        3.807    -0.068    21.787     6.645
     2   6 C        3.811    -0.072    21.871     6.657
     3   6 C        3.787     0.047    19.800     6.338
     4   6 C        3.605     0.326    16.197     5.817
     5   8 O        1.657    -0.471    22.273     6.371
     6   8 O        1.656    -0.470    22.249     6.368
     7   7 N        2.632    -0.341    28.775     7.967
     8   6 C        3.754     0.011    20.438     6.446
     9   7 N        2.743    -0.199    25.324     7.474
    10   6 C        2.754     0.243    22.930     7.841
    11   7 N        2.642    -0.306    27.871     7.841
    12   7 N        1.786    -0.450    32.802     8.483
    13   1 H        0.924     0.046     2.375     2.410
    14   1 H        0.924     0.045     2.380     2.413
    15   1 H        0.925     0.055     2.263     2.352
    16   1 H        0.924     0.053     2.281     2.362
    17   1 H        0.924     0.045     2.390     2.418
    18   1 H        0.804     0.314     0.680     1.295
    19   1 H        0.860     0.157     1.356     1.824
    20   1 H        0.860     0.155     1.365     1.830
    21   1 H        0.925     0.044     2.394     2.420
    22   1 H        0.923     0.040     2.445     2.446
    23   1 H        0.860     0.172     1.260     1.759
    24   1 H        0.860     0.173     1.253     1.754
    25   1 H        0.860     0.126     1.573     1.965
    26   1 H        0.803     0.323     0.657     1.273

 Mol. C6AA /au·bohr⁶  :       5781.375847
 Mol. C8AA /au·bohr⁸  :     123577.159060
 Mol. α(0) /au        :        112.765185


Wiberg/Mayer (AO) data.
largest (>0.10) Wiberg bond orders for each atom

 ---------------------------------------------------------------------------
     #   Z sym  total        # sym  WBO       # sym  WBO       # sym  WBO
 ---------------------------------------------------------------------------
     1   6 C    3.996 --     2 C    1.009     8 C    1.007    13 H    0.976
                            14 H    0.974
     2   6 C    3.995 --     1 C    1.009     3 C    0.995    15 H    0.974
                            16 H    0.973
     3   6 C    3.987 --     7 N    1.032     2 C    0.995    17 H    0.963
                             4 C    0.932
     4   6 C    3.920 --     5 O    1.011     6 O    0.982     3 C    0.932
                             9 N    0.924
     5   8 O    1.976 --     4 C    1.011    26 H    0.826
     6   8 O    1.975 --     4 C    0.982    18 H    0.869
     7   7 N    3.014 --     3 C    1.032    19 H    0.959    20 H    0.959
     8   6 C    3.974 --     1 C    1.007     9 N    0.974    21 H    0.968
                            22 H    0.966
     9   7 N    3.313 --    10 C    1.134     8 C    0.974     4 C    0.924
    10   6 C    3.963 --    12 N    1.634    11 N    1.147     9 N    1.134
    11   7 N    3.250 --    10 C    1.147    23 H    0.949    24 H    0.945
                            12 N    0.142
    12   7 N    2.960 --    10 C    1.634    25 H    0.952    11 N    0.142
    13   1 H    0.998 --     1 C    0.976
    14   1 H    0.997 --     1 C    0.974
    15   1 H    0.997 --     2 C    0.974
    16   1 H    0.997 --     2 C    0.973
    17   1 H    0.998 --     3 C    0.963
    18   1 H    0.901 --     6 O    0.869
    19   1 H    0.975 --     7 N    0.959
    20   1 H    0.976 --     7 N    0.959
    21   1 H    0.998 --     8 C    0.968
    22   1 H    0.998 --     8 C    0.966
    23   1 H    0.970 --    11 N    0.949
    24   1 H    0.970 --    11 N    0.945
    25   1 H    0.983 --    12 N    0.952
    26   1 H    0.896 --     5 O    0.826
 ---------------------------------------------------------------------------

Topologies differ in total number of bonds
Writing topology from bond orders to xtbtopo.mol

molecular dipole:
                 x           y           z       tot (Debye)
 q only:        0.698       1.034      -0.138
   full:        1.796       1.023      -0.109       5.262
molecular quadrupole (traceless):
                xx          xy          yy          xz          yz          zz
 q only:        3.098       0.621       1.131      -2.783      -2.029      -4.229
  q+dip:        3.168      -0.248       0.214      -5.503      -3.543      -3.382
   full:        3.200      -0.277       0.491      -5.588      -3.081      -3.691

           -------------------------------------------------
          |                Geometry Summary                 |
           -------------------------------------------------

      molecular mass/u    :      174.2012086
   center of mass at/Å    :        0.0000036      -0.0000052       0.0000001
  moments of inertia/u·Å² :        0.3380783E+03   0.5916185E+03   0.8053802E+03
rotational constants/cm⁻¹ :        0.4986310E-01   0.2849409E-01   0.2093127E-01

 * 24 selected distances

     #   Z          #   Z                                           value/Å
     1   6 C        2   6 C                                       1.5213253
     2   6 C        3   6 C                                       1.5234724 (max)
     4   6 C        5   8 O                                       1.3819897
     4   6 C        6   8 O                                       1.3969840
     3   6 C        7   7 N                                       1.4467920
     1   6 C        8   6 C                                       1.5217845
     4   6 C        9   7 N                                       1.4749809
     8   6 C        9   7 N                                       1.4598574
     9   7 N       10   6 C                                       1.3820966
    10   6 C       11   7 N                                       1.3779950
    10   6 C       12   7 N                                       1.2801207
     1   6 C       13   1 H                                       1.0914570
     1   6 C       14   1 H                                       1.0908690
     2   6 C       15   1 H                                       1.0894371
     2   6 C       16   1 H                                       1.0912746
     3   6 C       17   1 H                                       1.0957703
     6   8 O       18   1 H                                       0.9693424 (min)
     7   7 N       19   1 H                                       1.0151825
     7   7 N       20   1 H                                       1.0163201
     8   6 C       21   1 H                                       1.0899890
     8   6 C       22   1 H                                       1.0998737
    11   7 N       23   1 H                                       1.0079774
    11   7 N       24   1 H                                       1.0065418
     5   8 O       26   1 H                                       0.9793727

 * 6 distinct bonds (by element types)

   Z      Z             #   av. dist./Å        max./Å        min./Å
   1 H    6 C           7     1.0926672     1.0998737     1.0894371
   6 C    6 C           3     1.5221941     1.5234724     1.5213253
   1 H    7 N           4     1.0115055     1.0163201     1.0065418
   6 C    7 N           6     1.4036404     1.4749809     1.2801207
   1 H    8 O           2     0.9743575     0.9793727     0.9693424
   6 C    8 O           2     1.3894868     1.3969840     1.3819897

           -------------------------------------------------
          |               Frequency Printout                |
           -------------------------------------------------
 projected vibrational frequencies (cm⁻¹)
eigval :       -0.00    -0.00    -0.00     0.00     0.00     0.00
eigval :       61.99    83.38   112.22   180.60   211.03   237.07
eigval :      292.40   311.77   317.57   340.38   370.27   401.40
eigval :      413.76   432.52   471.32   491.88   511.54   528.67
eigval :      567.68   578.19   618.58   649.25   672.91   749.56
eigval :      770.92   869.54   888.71   911.29   949.67   999.98
eigval :     1007.71  1024.88  1032.41  1056.77  1075.72  1095.59
eigval :     1117.07  1128.34  1143.24  1166.62  1178.00  1200.33
eigval :     1215.90  1233.67  1262.66  1295.88  1312.95  1336.25
eigval :     1344.50  1360.42  1364.67  1392.90  1466.45  1471.28
eigval :     1483.33  1493.23  1561.01  1670.32  2877.17  2937.11
eigval :     2980.25  2988.16  2993.06  2996.56  3007.07  3231.80
eigval :     3380.65  3394.94  3410.49  3450.61  3457.93  3513.09
 reduced masses (amu)
   1: 12.08   2: 12.18   3: 12.37   4: 11.54   5: 11.84   6: 12.64   7: 12.09   8: 11.57
   9: 10.88  10: 10.68  11: 11.67  12: 12.77  13:  7.39  14:  9.68  15:  3.17  16: 11.57
  17: 10.55  18: 11.07  19:  3.64  20:  8.94  21:  4.07  22: 11.69  23:  8.89  24:  5.83
  25:  8.20  26:  9.21  27:  8.09  28:  8.27  29:  8.97  30:  8.75  31:  5.94  32:  8.71
  33:  5.46  34:  7.20  35:  8.44  36:  7.23  37:  6.48  38:  5.49  39:  5.01  40:  9.44
  41:  8.34  42:  8.69  43:  8.21  44:  6.86  45:  7.08  46:  8.35  47:  5.46  48:  6.74
  49:  6.33  50:  5.59  51:  3.77  52:  4.05  53:  3.75  54:  4.66  55:  5.20  56:  5.69
  57:  5.78  58:  9.27  59:  2.35  60:  1.95  61:  2.35  62:  3.32  63:  2.08  64: 12.09
  65:  1.74  66:  1.74  67:  1.91  68:  1.58  69:  1.86  70:  1.67  71:  1.63  72:  1.86
  73:  1.55  74:  1.86  75:  2.04  76:  1.86  77:  1.47  78:  2.15
 IR intensities (km·mol⁻¹)
   1:  1.50   2:  0.63   3:  0.45   4:  0.70   5:  0.20   6:  0.18   7:  0.95   8:  4.17
   9:  1.51  10:  8.41  11:  2.47  12:  1.41  13: 13.00  14:  3.39  15: 35.11  16:  9.76
  17:  1.35  18: 10.14  19: 20.86  20:  5.05  21: 86.35  22: 14.21  23: 11.43  24:183.44
  25: 68.16  26: 12.40  27:110.39  28:152.78  29: 87.49  30: 54.55  31: 45.36  32: 11.66
  33: 10.38  34:  7.60  35: 53.14  36: 68.15  37:179.30  38: 31.72  39: 18.88  40: 12.69
  41: 90.91  42: 60.74  43: 85.57  44: 87.16  45: 22.00  46:  6.17  47:152.63  48: 65.41
  49:181.20  50:  8.50  51: 30.36  52: 78.46  53:  7.05  54:  9.93  55: 19.44  56:  4.89
  57: 28.99  58:327.14  59: 14.52  60:  1.59  61: 36.39  62:127.95  63: 40.98  64:400.84
  65: 38.96  66: 32.63  67: 12.81  68: 10.90  69: 63.06  70: 61.89  71: 41.36  72:182.50
  73:  6.61  74: 23.92  75:  1.38  76: 54.82  77:  3.00  78:  1.08
 Raman intensities (amu)
   1:  0.00   2:  0.00   3:  0.00   4:  0.00   5:  0.00   6:  0.00   7:  0.00   8:  0.00
   9:  0.00  10:  0.00  11:  0.00  12:  0.00  13:  0.00  14:  0.00  15:  0.00  16:  0.00
  17:  0.00  18:  0.00  19:  0.00  20:  0.00  21:  0.00  22:  0.00  23:  0.00  24:  0.00
  25:  0.00  26:  0.00  27:  0.00  28:  0.00  29:  0.00  30:  0.00  31:  0.00  32:  0.00
  33:  0.00  34:  0.00  35:  0.00  36:  0.00  37:  0.00  38:  0.00  39:  0.00  40:  0.00
  41:  0.00  42:  0.00  43:  0.00  44:  0.00  45:  0.00  46:  0.00  47:  0.00  48:  0.00
  49:  0.00  50:  0.00  51:  0.00  52:  0.00  53:  0.00  54:  0.00  55:  0.00  56:  0.00
  57:  0.00  58:  0.00  59:  0.00  60:  0.00  61:  0.00  62:  0.00  63:  0.00  64:  0.00
  65:  0.00  66:  0.00  67:  0.00  68:  0.00  69:  0.00  70:  0.00  71:  0.00  72:  0.00
  73:  0.00  74:  0.00  75:  0.00  76:  0.00  77:  0.00  78:  0.00
 output can be read by thermo (or use thermo option).
 writing <g98.out> molden fake output.
 recommended (thermochemical) frequency scaling factor: 1.0
           -------------------------------------------------
          |             Thermodynamic Functions             |
           -------------------------------------------------

Molecule has no symmetry elements
It seems to be the C1 point group
c1  symmetry found (for desy threshold:  0.10E+00) used in thermo

          ...................................................
          :                      SETUP                      :
          :.................................................:
          :  # frequencies                          72      :
          :  # imaginary freq.                       0      :
          :  linear?                             false      :
          :  only rotor calc.                    false      :
          :  symmetry                               c1      :
          :  rotational number                       1      :
          :  scaling factor                  1.0000000      :
          :  rotor cutoff                   50.0000000 cm⁻¹ :
          :  imag. cutoff                  -20.0000000 cm⁻¹ :
          :.................................................:

    mode    ω/cm⁻¹     T·S(HO)/kcal·mol⁻¹    T·S(FR)/kcal·mol⁻¹   T·S(vib)
   ------------------------------------------------------------------------
       1     61.99    -1.30969 ( 70.27%)    -0.99272 ( 29.73%)    -1.21544
       2     83.38    -1.13585 ( 88.55%)    -0.90495 ( 11.45%)    -1.10942
       3    112.22    -0.96306 ( 96.21%)    -0.81698 (  3.79%)    -0.95752
       4    180.60    -0.69235 ( 99.42%)    -0.67604 (  0.58%)    -0.69226
       5    211.03    -0.60667 ( 99.69%)    -0.62993 (  0.31%)    -0.60674
       6    237.07    -0.54406 ( 99.80%)    -0.59547 (  0.20%)    -0.54416
       7    292.40    -0.43530 ( 99.91%)    -0.53332 (  0.09%)    -0.43538
   ------------------------------------------------------------------------

   temp. (K)  partition function   enthalpy   heat capacity  entropy
                                   cal/mol     cal/K/mol   cal/K/mol   J/K/mol
 298.15  VIB  0.127E+04             5827.769     42.341     33.328
         ROT  0.970E+06              888.752      2.981     30.374
         INT  0.123E+10             6716.522     45.321     63.703
         TR   0.222E+28             1481.254      4.968     41.354
         TOT                        8197.7756    50.2896   105.0566   439.5567

       T/K    H(0)-H(T)+PV         H(T)/Eh          T*S/Eh         G(T)/Eh
   ------------------------------------------------------------------------
    298.15    0.130640E-01    0.229734E+00    0.499158E-01    0.179818E+00
   ------------------------------------------------------------------------

         :::::::::::::::::::::::::::::::::::::::::::::::::::::
         ::                  THERMODYNAMIC                  ::
         :::::::::::::::::::::::::::::::::::::::::::::::::::::
         :: total free energy         -39.654415448281 Eh   ::
         ::.................................................::
         :: total energy              -39.834233366339 Eh   ::
         :: zero point energy           0.216669693271 Eh   ::
         :: G(RRHO) w/o ZPVE           -0.036851775213 Eh   ::
         :: G(RRHO) contrib.            0.179817918059 Eh   ::
         :::::::::::::::::::::::::::::::::::::::::::::::::::::

optimized geometry written to: xtbopt.xyz


           -------------------------------------------------
          | TOTAL ENERGY              -39.834233366339 Eh   |
          | TOTAL ENTHALPY            -39.604499686155 Eh   |
          | TOTAL FREE ENERGY         -39.654415448281 Eh   |
          | GRADIENT NORM               0.000081134664 Eh/α |
          | HOMO-LUMO GAP               4.285164281883 eV   |
           -------------------------------------------------

------------------------------------------------------------------------
 * finished run on 2025/07/30 at 12:34:42.835     
------------------------------------------------------------------------
 total:
 * wall-time:     0 d,  0 h,  0 min,  0.702 sec
 *  cpu-time:     0 d,  0 h,  0 min,  5.375 sec
 * ratio c/w:     7.662 speedup
 SCF:
 * wall-time:     0 d,  0 h,  0 min,  0.018 sec
 *  cpu-time:     0 d,  0 h,  0 min,  0.122 sec
 * ratio c/w:     6.945 speedup
 ANC optimizer:
 * wall-time:     0 d,  0 h,  0 min,  0.038 sec
 *  cpu-time:     0 d,  0 h,  0 min,  0.266 sec
 * ratio c/w:     6.999 speedup
 analytical hessian:
 * wall-time:     0 d,  0 h,  0 min,  0.615 sec
 *  cpu-time:     0 d,  0 h,  0 min,  4.840 sec
 * ratio c/w:     7.875 speedup

