26
 energy: -39.834233366338 gnorm: 0.000081108691 xtb: 6.6.0 (8843059)
C           -0.90215800000000        2.24145000000000       -0.15144500000000
C           -2.04069500000000        1.27734400000000        0.14631900000000
C           -1.73478500000000       -0.07236700000000       -0.49060100000000
C           -0.36830700000000       -0.63269200000000       -0.00895200000000
O           -0.11209200000000       -1.72851300000000       -0.81109000000000
O           -0.46903900000000       -0.99452100000000        1.33659500000000
N           -2.81139900000000       -1.00453900000000       -0.23532800000000
C            0.38817600000000        1.67007100000000        0.41810900000000
N            0.69375800000000        0.37574600000000       -0.18399200000000
C            1.98972800000000       -0.08939500000000       -0.06442500000000
N            2.97929100000000        0.82344700000000       -0.35828600000000
N            2.21005100000000       -1.29699300000000        0.29871900000000
H           -0.80250600000000        2.37343300000000       -1.23030000000000
H           -1.09149400000000        3.21484300000000        0.30314600000000
H           -2.98746100000000        1.64275000000000       -0.24989500000000
H           -2.14445400000000        1.14250700000000        1.22424900000000
H           -1.64180900000000        0.04390300000000       -1.57621100000000
H            0.36283900000000       -1.43406700000000        1.56983900000000
H           -2.59798600000000       -1.88484300000000       -0.69371100000000
H           -2.84961500000000       -1.19014000000000        0.76317000000000
H            1.22199700000000        2.34995200000000        0.24323700000000
H            0.27193900000000        1.54377700000000        1.50450700000000
H            3.89789300000000        0.43501800000000       -0.50427100000000
H            2.74310500000000        1.58271100000000       -0.97542500000000
H            3.18698300000000       -1.56784700000000        0.27425700000000
H            0.76292300000000       -2.07499800000000       -0.54004100000000
