      -----------------------------------------------------------      
     |                   =====================                   |     
     |                           x T B                           |     
     |                   =====================                   |     
     |                         S. Grimme                         |     
     |          Mulliken Center for Theoretical Chemistry        |     
     |                    University of Bonn                     |     
      -----------------------------------------------------------      

   * xtb version 6.6.0 (8843059) compiled by 'stahn@majestix' on 2023-02-09

   xtb is free software: you can redistribute it and/or modify it under
   the terms of the GNU Lesser General Public License as published by
   the Free Software Foundation, either version 3 of the License, or
   (at your option) any later version.
   
   xtb is distributed in the hope that it will be useful,
   but WITHOUT ANY WARRANTY; without even the implied warranty of
   MERCHANTABILITY or FITNESS FOR A PARTICULAR PURPOSE.  See the
   GNU Lesser General Public License for more details.
   
   Cite this work as:
   * C. Bannwarth, E. Caldeweyher, S. Ehlert, A. Hansen, P. Pracht,
     J. Seibert, S. Spicher, S. Grimme, WIREs Comput. Mol. Sci., 2020, 11,
     e01493. DOI: 10.1002/wcms.1493
   
   for GFN2-xTB:
   * C. Bannwarth, S. Ehlert and S. Grimme., J. Chem. Theory Comput., 2019,
     15, 1652-1671. DOI: 10.1021/acs.jctc.8b01176
   for GFN1-xTB:
   * S. Grimme, C. Bannwarth, P. Shushkov, J. Chem. Theory Comput., 2017,
     13, 1989-2009. DOI: 10.1021/acs.jctc.7b00118
   for GFN0-xTB:
   * P. Pracht, E. Caldeweyher, S. Ehlert, S. Grimme, ChemRxiv, 2019, preprint.
     DOI: 10.26434/chemrxiv.8326202.v1
   for GFN-FF:
   * S. Spicher and S. Grimme, Angew. Chem. Int. Ed., 2020, 59, 15665-15673.
     DOI: 10.1002/anie.202004239
   
   for ALPB and GBSA implicit solvation:
   * S. Ehlert, M. Stahn, S. Spicher, S. Grimme, J. Chem. Theory Comput.,
     2021, 17, 4250-4261. DOI: 10.1021/acs.jctc.1c00471
   
   for DFT-D4:
   * E. Caldeweyher, C. Bannwarth and S. Grimme, J. Chem. Phys., 2017,
     147, 034112. DOI: 10.1063/1.4993215
   * E. Caldeweyher, S. Ehlert, A. Hansen, H. Neugebauer, S. Spicher,
     C. Bannwarth and S. Grimme, J. Chem. Phys., 2019, 150, 154122.
     DOI: 10.1063/1.5090222
   * E. Caldeweyher, J.-M. Mewes, S. Ehlert and S. Grimme, Phys. Chem. Chem. Phys.
     2020, 22, 8499-8512. DOI: 10.1039/D0CP00502A
   
   for sTDA-xTB:
   * S. Grimme and C. Bannwarth, J. Chem. Phys., 2016, 145, 054103.
     DOI: 10.1063/1.4959605
   
   in the mass-spec context:
   * V. Asgeirsson, C. Bauer and S. Grimme, Chem. Sci., 2017, 8, 4879.
     DOI: 10.1039/c7sc00601b
   * J. Koopman and S. Grimme, ACS Omega 2019, 4, 12, 15120-15133.
     DOI: 10.1021/acsomega.9b02011
   
   for metadynamics refer to:
   * S. Grimme, J. Chem. Theory Comput., 2019, 155, 2847-2862
     DOI: 10.1021/acs.jctc.9b00143
   
   for SPH calculations refer to:
   * S. Spicher and S. Grimme, J. Chem. Theory Comput., 2021, 17, 1701-1714
     DOI: 10.1021/acs.jctc.0c01306
   
   with help from (in alphabetical order)
   P. Atkinson, C. Bannwarth, F. Bohle, G. Brandenburg, E. Caldeweyher
   M. Checinski, S. Dohm, S. Ehlert, S. Ehrlich, I. Gerasimov, C. Hölzer
   A. Katbashev, J. Koopman, C. Lavigne, S. Lehtola, F. März, M. Müller,
   F. Musil, H. Neugebauer, J. Pisarek, C. Plett, P. Pracht, F. Pultar,
   J. Seibert, P. Shushkov, S. Spicher, M. Stahn, M. Steiner, T. Strunk,
   J. Stückrath, T. Rose, and J. Unsleber
   
 * started run on 2025/07/30 at 12:34:51.567     

           -------------------------------------------------
          |                Calculation Setup                |
           -------------------------------------------------

          program call               : xtb --gfn2 in.xyz --ohess vtight
          coordinate file            : in.xyz
          omp threads                :                     8

   ID    Z sym.   atoms
    1    6 C      1-4, 8, 10
    2    8 O      5, 6
    3    7 N      7, 9, 11, 12
    4    1 H      13-26

           -------------------------------------------------
          |                 G F N 2 - x T B                 |
           -------------------------------------------------

        Reference                      10.1021/acs.jctc.8b01176
      * Hamiltonian:
        H0-scaling (s, p, d)           1.850000    2.230000    2.230000
        zeta-weighting                 0.500000
      * Dispersion:
        s8                             2.700000
        a1                             0.520000
        a2                             5.000000
        s9                             5.000000
      * Repulsion:
        kExp                           1.500000    1.000000
        rExp                           1.000000
      * Coulomb:
        alpha                          2.000000
        third order                    shell-resolved
        anisotropic                    true
        a3                             3.000000
        a5                             4.000000
        cn-shift                       1.200000
        cn-exp                         4.000000
        max-rad                        5.000000


          ...................................................
          :                      SETUP                      :
          :.................................................:
          :  # basis functions                  62          :
          :  # atomic orbitals                  62          :
          :  # shells                           38          :
          :  # electrons                        70          :
          :  max. iterations                   250          :
          :  Hamiltonian                  GFN2-xTB          :
          :  restarted?                      false          :
          :  GBSA solvation                  false          :
          :  PC potential                    false          :
          :  electronic temp.          300.0000000     K    :
          :  accuracy                    1.0000000          :
          :  -> integral cutoff          0.2500000E+02      :
          :  -> integral neglect         0.1000000E-07      :
          :  -> SCF convergence          0.1000000E-05 Eh   :
          :  -> wf. convergence          0.1000000E-03 e    :
          :  Broyden damping             0.4000000          :
          ...................................................

 iter      E             dE          RMSdq      gap      omega  full diag
   1    -40.1956580 -0.401957E+02  0.360E+00    4.83       0.0  T
   2    -40.2411156 -0.454576E-01  0.201E+00    4.89       1.0  T
   3    -40.2433805 -0.226497E-02  0.746E-01    4.46       1.0  T
   4    -40.2446986 -0.131806E-02  0.191E-01    4.47       1.0  T
   5    -40.2448804 -0.181787E-03  0.671E-02    4.47       1.0  T
   6    -40.2449035 -0.230784E-04  0.338E-02    4.48       1.0  T
   7    -40.2449055 -0.205909E-05  0.782E-03    4.49       2.5  T
   8    -40.2449061 -0.599331E-06  0.316E-03    4.49       6.2  T
   9    -40.2449062 -0.362991E-07  0.142E-03    4.49      13.8  T
  10    -40.2449062 -0.269098E-08  0.386E-04    4.49      50.9  T
  11    -40.2449062 -0.614804E-09  0.106E-04    4.49     185.4  T

   *** convergence criteria satisfied after 11 iterations ***

         #    Occupation            Energy/Eh            Energy/eV
      -------------------------------------------------------------
         1        2.0000           -0.7016889             -19.0939
       ...           ...                  ...                  ...
        29        2.0000           -0.4349976             -11.8369
        30        2.0000           -0.4294713             -11.6865
        31        2.0000           -0.4199275             -11.4268
        32        2.0000           -0.4062682             -11.0551
        33        2.0000           -0.3858027             -10.4982
        34        2.0000           -0.3806181             -10.3571
        35        2.0000           -0.3544095              -9.6440 (HOMO)
        36                         -0.1895419              -5.1577 (LUMO)
        37                         -0.0192999              -0.5252
        38                          0.0153656               0.4181
        39                          0.0384965               1.0475
        40                          0.0431189               1.1733
       ...                                ...                  ...
        62                          0.5393300              14.6759
      -------------------------------------------------------------
                  HL-Gap            0.1648675 Eh            4.4863 eV
             Fermi-level           -0.2719757 Eh           -7.4008 eV

 SCC (total)                   0 d,  0 h,  0 min,  0.020 sec
 SCC setup                      ...        0 min,  0.000 sec (  1.211%)
 Dispersion                     ...        0 min,  0.000 sec (  1.197%)
 classical contributions        ...        0 min,  0.000 sec (  0.153%)
 integral evaluation            ...        0 min,  0.002 sec (  7.515%)
 iterations                     ...        0 min,  0.014 sec ( 68.101%)
 molecular gradient             ...        0 min,  0.004 sec ( 20.918%)
 printout                       ...        0 min,  0.000 sec (  0.753%)

         :::::::::::::::::::::::::::::::::::::::::::::::::::::
         ::                     SUMMARY                     ::
         :::::::::::::::::::::::::::::::::::::::::::::::::::::
         :: total energy             -39.829637544692 Eh    ::
         :: gradient norm              0.000076882979 Eh/a0 ::
         :: HOMO-LUMO gap              4.486273377528 eV    ::
         ::.................................................::
         :: SCC energy               -40.244906172705 Eh    ::
         :: -> isotropic ES            0.097999956122 Eh    ::
         :: -> anisotropic ES         -0.002432864762 Eh    ::
         :: -> anisotropic XC          0.014243135022 Eh    ::
         :: -> dispersion             -0.024584688119 Eh    ::
         :: repulsion energy           0.414986858083 Eh    ::
         :: add. restraining           0.000000000000 Eh    ::
         :: total charge              -0.000000000000 e     ::
         :::::::::::::::::::::::::::::::::::::::::::::::::::::

      ----------------------------------------------------------- 
     |                   =====================                   |
     |                        A N C O P T                        |
     |                   =====================                   |
     |               Approximate Normal Coordinate               |
     |                Rational Function Optimizer                |
      ----------------------------------------------------------- 

          ...................................................
          :                      SETUP                      :
          :.................................................:
          :   optimization level         verytight          :
          :   max. optcycles                   520          :
          :   ANC micro-cycles                  20          :
          :   degrees of freedom                72          :
          :.................................................:
          :   RF solver                   davidson          :
          :   write xtbopt.log                true          :
          :   linear?                        false          :
          :   energy convergence         0.1000000E-06 Eh   :
          :   grad. convergence          0.2000000E-03 Eh/α :
          :   maxmium RF displ.          1.0000000          :
          :   Hlow (freq-cutoff)         0.1000000E-01      :
          :   Hmax (freq-cutoff)         5.0000000          :
          :   S6 in model hess.         20.0000000          :
          ...................................................

generating ANC from model Hessian ...
Using Lindh-Hessian (1995)
 Shifting diagonal of input Hessian by   7.827431171983854E-003
 Lowest  eigenvalues of input Hessian
    0.000000    0.000000    0.000000    0.000000    0.000000    0.000000
    0.010000    0.011528    0.012540    0.014441    0.018282    0.019063
    0.022014    0.024543    0.026990    0.028378    0.030618    0.031935
 Highest eigenvalues
    1.458780    1.510326    1.573924    1.699449    2.089463    2.243375
 

........................................................................
.............................. CYCLE    1 ..............................
........................................................................

 iter      E             dE          RMSdq      gap      omega  full diag
   1    -40.2449062 -0.402449E+02  0.446E-05    4.49       0.0  T
   2    -40.2449062 -0.575540E-11  0.256E-05    4.49     767.5  T
   3    -40.2449062 -0.568434E-12  0.107E-05    4.49    1836.3  T
     SCC iter.                  ...        0 min,  0.003 sec
     gradient                   ...        0 min,  0.004 sec
 * total energy  :   -39.8296375 Eh     change       -0.3605294E-10 Eh
   gradient norm :     0.0000774 Eh/α   predicted     0.0000000E+00 (-100.00%)
   displ. norm   :     0.0001161 α      lambda        0.0000000E+00
   maximum displ.:     0.0000369 α      in ANC's #45, #40, #42, ...

   *** GEOMETRY OPTIMIZATION CONVERGED AFTER 1 ITERATIONS ***

------------------------------------------------------------------------
 total energy gain   :        -0.0000000 Eh       -0.0000 kcal/mol
 total RMSD          :         0.0000000 a0        0.0000 Å
 total power (kW/mol):        -0.0000001 (step)   -0.0000 (real)
------------------------------------------------------------------------

 ANCopt (total)                0 d,  0 h,  0 min,  0.054 sec
 optimizer setup                ...        0 min,  0.000 sec (  0.261%)
 model hessian                  ...        0 min,  0.044 sec ( 81.767%)
 ANC generation                 ...        0 min,  0.001 sec (  1.400%)
 coordinate transformation      ...        0 min,  0.000 sec (  0.022%)
 single point calculation       ...        0 min,  0.009 sec ( 15.943%)
 optimization log               ...        0 min,  0.000 sec (  0.270%)
 hessian update                 ...        0 min,  0.000 sec (  0.005%)
 rational function              ...        0 min,  0.000 sec (  0.101%)

================
 final structure:
================
26
 xtb: 6.6.0 (8843059)
C           -0.68443600000000        2.07129000000000       -0.35038700000000
C           -1.92994300000000        1.19363500000000       -0.23367600000000
C           -1.60317200000000       -0.20041900000000        0.30988500000000
C           -0.45018900000000       -0.86403600000000       -0.51094900000000
O           -0.87364500000000       -1.01143000000000       -1.83110500000000
O           -0.14177100000000       -2.10696000000000       -0.01907300000000
N           -1.32017600000000       -0.14889100000000        1.73072500000000
C            0.36630300000000        1.31048200000000       -1.15731000000000
N            0.71443400000000        0.06252200000000       -0.49870500000000
C            1.62752600000000        0.01331200000000        0.51696800000000
N            2.26190400000000        1.18460600000000        0.88438900000000
N            1.87009300000000       -1.10275600000000        1.10666000000000
H           -0.93381100000000        3.00706400000000       -0.85261400000000
H           -0.29496700000000        2.30867900000000        0.64177000000000
H           -2.37489200000000        1.07385000000000       -1.22197800000000
H           -2.66045500000000        1.65569700000000        0.43062900000000
H           -2.47578200000000       -0.84916200000000        0.17878100000000
H            0.68535700000000       -2.01851300000000        0.53885500000000
H           -1.16079200000000       -1.09022500000000        2.07457500000000
H           -0.47345500000000        0.38333800000000        1.90580100000000
H           -0.05880100000000        1.03277400000000       -2.12501200000000
H            1.26247600000000        1.90432900000000       -1.34754500000000
H            3.11849100000000        1.06331500000000        1.40136900000000
H            2.26183900000000        1.97325500000000        0.26142000000000
H            2.56398700000000       -1.04883900000000        1.84092400000000
H           -0.47994700000000       -1.82960700000000       -2.16085600000000
 
 Bond Distances (Angstroems)
 ---------------------------
C1-C2=1.5281         C1-C8=1.5277         C1-H13=1.0909        C1-H14=1.0920        C2-C1=1.5281         C2-C3=1.5315         
C2-H15=1.0904        C2-H16=1.0902        C3-C2=1.5315         C3-C4=1.5632         C3-N7=1.4497         C3-H17=1.0952        
C4-C3=1.5632         C4-O5=1.3942         C4-O6=1.3718         C4-N9=1.4883         O5-C4=1.3942         O5-H26=0.9660        
O6-C4=1.3718         O6-H18=1.0016        N7-C3=1.4497         N7-H19=1.0148        N7-H20=1.0153        C8-C1=1.5277         
C8-N9=1.4534         C8-H21=1.0928        C8-H22=1.0918        N9-C4=1.4883         N9-C8=1.4534         N9-C10=1.3667        
C10-N9=1.3667        C10-N11=1.3818       C10-N12=1.2854       N11-C10=1.3818       N11-H23=1.0078       N11-H24=1.0050       
N12-C10=1.2854       N12-H25=1.0117       H13-C1=1.0909        H14-C1=1.0920        H15-C2=1.0904        H16-C2=1.0902        
H17-C3=1.0952        H18-O6=1.0016        H19-N7=1.0148        H20-N7=1.0153        H21-C8=1.0928        H22-C8=1.0918        
H23-N11=1.0078       H24-N11=1.0050       H25-N12=1.0117       H26-O5=0.9660        
 C  H  Rav=1.0919 sigma=0.0016  Rmin=1.0902  Rmax=1.0952     7
 C  C  Rav=1.5376 sigma=0.0148  Rmin=1.5277  Rmax=1.5632     4
 N  H  Rav=1.0109 sigma=0.0040  Rmin=1.0050  Rmax=1.0153     5
 N  C  Rav=1.4042 sigma=0.0678  Rmin=1.2854  Rmax=1.4883     6
 O  H  Rav=0.9838 sigma=0.0178  Rmin=0.9660  Rmax=1.0016     2
 O  C  Rav=1.3830 sigma=0.0112  Rmin=1.3718  Rmax=1.3942     2
 
 selected bond angles (degree)
 --------------------
C8-C1-C2=108.35                H13-C1-C2=109.97               H13-C1-C8=109.95               H14-C1-C2=110.25               
H14-C1-C8=110.05               H14-C1-H13=108.26              C3-C2-C1=112.08                H15-C2-C1=109.05               
H15-C2-C3=107.98               H16-C2-C1=110.44               H16-C2-C3=108.21               H16-C2-H15=108.99              
C4-C3-C2=110.94                N7-C3-C2=110.93                N7-C3-C4=112.69                H17-C3-C2=109.07               
H17-C3-C4=105.86               H17-C3-N7=107.09               O5-C4-C3=108.55                O6-C4-C3=111.23                
O6-C4-O5=108.18                N9-C4-C3=107.97                N9-C4-O5=108.14                N9-C4-O6=112.66                
H26-O5-C4=106.80               H18-O6-C4=107.78               H19-N7-C3=109.26               H20-N7-C3=110.51               
H20-N7-H19=107.27              N9-C8-C1=110.67                H21-C8-C1=109.07               H21-C8-N9=106.04               
H22-C8-C1=112.69               H22-C8-N9=110.45               H22-C8-H21=107.65              C8-N9-C4=110.08                
C10-N9-C4=120.43               C10-N9-C8=121.85               N11-C10-N9=118.28              N12-C10-N9=119.89              
N12-C10-N11=121.83             
 
 selected dihedral angles (degree)
 ---------------------------------
C3-C2-C1-C8= 52.86            C3-C2-C1-H13=173.07           C3-C2-C1-H14=292.37           H15-C2-C1-C8=293.35           
H15-C2-C1-H13= 53.55          H15-C2-C1-H14=172.86          H16-C2-C1-C8=173.60           H16-C2-C1-H13=293.81          
H16-C2-C1-H14= 53.11          C4-C3-C2-C1=307.92            C4-C3-C2-H15= 68.06           C4-C3-C2-H16=185.89           
N7-C3-C2-C1= 73.97            N7-C3-C2-H15=194.11           N7-C3-C2-H16=311.95           H17-C3-C2-C1=191.69           
H17-C3-C2-H15=311.83          H17-C3-C2-H16= 69.67          O5-C4-C3-C2=298.19            O5-C4-C3-N7=173.13            
O5-C4-C3-H17= 56.38           O6-C4-C3-C2=179.28            O6-C4-C3-N7= 54.22            O6-C4-C3-H17=297.47           
N9-C4-C3-C2= 55.19            N9-C4-C3-N7=290.13            N9-C4-C3-H17=173.38           H26-O5-C4-C3=214.55           
H26-O5-C4-O6=335.37           H26-O5-C4-N9= 97.66           H18-O6-C4-C3=259.06           H18-O6-C4-O5=139.93           
H18-O6-C4-N9= 20.45           H19-N7-C3-C2=176.72           H19-N7-C3-C4=301.80           H19-N7-C3-H17= 57.81          
H20-N7-C3-C2=294.53           H20-N7-C3-C4= 59.60           H20-N7-C3-H17=175.61          N9-C8-C1-C2=299.98            
N9-C8-C1-H13=179.76           N9-C8-C1-H14= 60.60           H21-C8-C1-C2= 56.26           H21-C8-C1-H13=296.05          
H21-C8-C1-H14=176.88          H22-C8-C1-C2=175.75           H22-C8-C1-H13= 55.54          H22-C8-C1-H14=296.37          
C8-N9-C4-C3=297.26            C8-N9-C4-O5= 54.53            C8-N9-C4-O6=174.03            C10-N9-C4-C3= 87.31           
C10-N9-C4-O5=204.58           C10-N9-C4-O6=324.08           C4-N9-C8-C1= 66.88            C4-N9-C8-H21=308.73           
C4-N9-C8-H22=192.38           C10-N9-C8-C1=277.33           C10-N9-C8-H21=159.18          C10-N9-C8-H22= 42.83          
N11-C10-N9-C4=211.25          N11-C10-N9-C8=357.74          N12-C10-N9-C4= 30.89          N12-C10-N9-C8=177.39          
           -------------------------------------------------
          |                Final Singlepoint                |
           -------------------------------------------------

          ...................................................
          :                      SETUP                      :
          :.................................................:
          :  # basis functions                  62          :
          :  # atomic orbitals                  62          :
          :  # shells                           38          :
          :  # electrons                        70          :
          :  max. iterations                   250          :
          :  Hamiltonian                  GFN2-xTB          :
          :  restarted?                      false          :
          :  GBSA solvation                  false          :
          :  PC potential                    false          :
          :  electronic temp.          300.0000000     K    :
          :  accuracy                    1.0000000          :
          :  -> integral cutoff          0.2500000E+02      :
          :  -> integral neglect         0.1000000E-07      :
          :  -> SCF convergence          0.1000000E-05 Eh   :
          :  -> wf. convergence          0.1000000E-03 e    :
          :  Broyden damping             0.4000000          :
          ...................................................

 iter      E             dE          RMSdq      gap      omega  full diag
   1    -40.2449062 -0.402449E+02  0.289E-06    4.49       0.0  T
   2    -40.2449062  0.994760E-13  0.173E-06    4.49   11314.6  T
   3    -40.2449062 -0.135003E-12  0.672E-07    4.49   29177.5  T

   *** convergence criteria satisfied after 3 iterations ***

         #    Occupation            Energy/Eh            Energy/eV
      -------------------------------------------------------------
         1        2.0000           -0.7016881             -19.0939
       ...           ...                  ...                  ...
        29        2.0000           -0.4349976             -11.8369
        30        2.0000           -0.4294714             -11.6865
        31        2.0000           -0.4199271             -11.4268
        32        2.0000           -0.4062679             -11.0551
        33        2.0000           -0.3858021             -10.4982
        34        2.0000           -0.3806176             -10.3571
        35        2.0000           -0.3544092              -9.6440 (HOMO)
        36                         -0.1895411              -5.1577 (LUMO)
        37                         -0.0192991              -0.5252
        38                          0.0153661               0.4181
        39                          0.0384971               1.0476
        40                          0.0431193               1.1733
       ...                                ...                  ...
        62                          0.5393309              14.6759
      -------------------------------------------------------------
                  HL-Gap            0.1648682 Eh            4.4863 eV
             Fermi-level           -0.2719752 Eh           -7.4008 eV

 SCC (total)                   0 d,  0 h,  0 min,  0.009 sec
 SCC setup                      ...        0 min,  0.000 sec (  1.429%)
 Dispersion                     ...        0 min,  0.000 sec (  1.216%)
 classical contributions        ...        0 min,  0.000 sec (  0.234%)
 integral evaluation            ...        0 min,  0.001 sec ( 13.743%)
 iterations                     ...        0 min,  0.003 sec ( 35.347%)
 molecular gradient             ...        0 min,  0.004 sec ( 46.388%)
 printout                       ...        0 min,  0.000 sec (  1.387%)

         :::::::::::::::::::::::::::::::::::::::::::::::::::::
         ::                     SUMMARY                     ::
         :::::::::::::::::::::::::::::::::::::::::::::::::::::
         :: total energy             -39.829637544728 Eh    ::
         :: gradient norm              0.000077500070 Eh/a0 ::
         :: HOMO-LUMO gap              4.486290831992 eV    ::
         ::.................................................::
         :: SCC energy               -40.244906172741 Eh    ::
         :: -> isotropic ES            0.098000522236 Eh    ::
         :: -> anisotropic ES         -0.002432712794 Eh    ::
         :: -> anisotropic XC          0.014243169497 Eh    ::
         :: -> dispersion             -0.024584692395 Eh    ::
         :: repulsion energy           0.414986858083 Eh    ::
         :: add. restraining           0.000000000000 Eh    ::
         :: total charge               0.000000000000 e     ::
         :::::::::::::::::::::::::::::::::::::::::::::::::::::

           ------------------------------------------------- 
          |                Numerical Hessian                |
           ------------------------------------------------- 
step length          :   0.00500
SCC accuracy         :   0.30000
Hessian scale factor :   1.00000
frozen atoms in %    :   0.00000    0
RMS gradient         :   0.00008
estimated CPU  time      0.91 min
estimated wall time      0.12 min

writing file <hessian>.

 projected vibrational frequencies (cm⁻¹)
eigval :       -0.00    -0.00    -0.00     0.00     0.00     0.00
eigval :       41.57    77.82   112.23   203.68   231.22   276.49
eigval :      288.46   306.90   318.64   321.88   350.65   374.62
eigval :      413.01   432.95   472.30   494.18   512.02   538.77
eigval :      560.20   599.58   622.31   665.79   674.73   712.97
eigval :      730.50   862.28   870.65   904.22   936.57   973.56
eigval :     1003.22  1014.59  1029.15  1052.43  1067.31  1084.74
eigval :     1112.52  1123.96  1142.37  1159.93  1198.57  1203.82
eigval :     1226.53  1242.09  1271.91  1288.36  1317.15  1329.86
eigval :     1341.50  1344.33  1354.49  1415.42  1460.35  1477.73
eigval :     1485.58  1508.63  1563.98  1649.84  2757.86  2945.42
eigval :     2957.02  2973.62  2984.43  2989.79  2999.28  3003.84
eigval :     3384.85  3414.31  3421.77  3467.42  3514.77  3523.66
           -------------------------------------------------
          |                Property Printout                |
           -------------------------------------------------

    * Orbital Energies and Occupations

         #    Occupation            Energy/Eh            Energy/eV
      -------------------------------------------------------------
         1        2.0000           -0.7016881             -19.0939
       ...           ...                  ...                  ...
        23        2.0000           -0.4888391             -13.3020
        24        2.0000           -0.4842692             -13.1776
        25        2.0000           -0.4742781             -12.9058
        26        2.0000           -0.4697578             -12.7828
        27        2.0000           -0.4538039             -12.3486
        28        2.0000           -0.4458937             -12.1334
        29        2.0000           -0.4349976             -11.8369
        30        2.0000           -0.4294714             -11.6865
        31        2.0000           -0.4199270             -11.4268
        32        2.0000           -0.4062679             -11.0551
        33        2.0000           -0.3858021             -10.4982
        34        2.0000           -0.3806176             -10.3571
        35        2.0000           -0.3544092              -9.6440 (HOMO)
        36                         -0.1895411              -5.1577 (LUMO)
        37                         -0.0192991              -0.5252
        38                          0.0153661               0.4181
        39                          0.0384971               1.0476
        40                          0.0431193               1.1733
        41                          0.0664447               1.8081
        42                          0.0759972               2.0680
        43                          0.0915986               2.4925
        44                          0.1025014               2.7892
        45                          0.1134670               3.0876
        46                          0.1284954               3.4965
       ...                                ...                  ...
        62                          0.5393309              14.6759
      -------------------------------------------------------------
                  HL-Gap            0.1648681 Eh            4.4863 eV
             Fermi-level           -0.2719752 Eh           -7.4008 eV

     #   Z          covCN         q      C6AA      α(0)
     1   6 C        3.803    -0.066    21.760     6.641
     2   6 C        3.808    -0.071    21.855     6.655
     3   6 C        3.782     0.033    20.040     6.377
     4   6 C        3.602     0.325    16.229     5.825
     5   8 O        1.657    -0.453    21.908     6.319
     6   8 O        1.652    -0.489    22.652     6.425
     7   7 N        2.631    -0.346    28.906     7.985
     8   6 C        3.757     0.006    20.532     6.460
     9   7 N        2.744    -0.179    24.867     7.406
    10   6 C        2.742     0.237    23.045     7.860
    11   7 N        2.642    -0.312    28.025     7.862
    12   7 N        1.823    -0.447    32.731     8.477
    13   1 H        0.924     0.039     2.461     2.453
    14   1 H        0.924     0.042     2.419     2.432
    15   1 H        0.924     0.052     2.301     2.372
    16   1 H        0.925     0.054     2.268     2.355
    17   1 H        0.924     0.050     2.316     2.380
    18   1 H        0.833     0.339     0.611     1.225
    19   1 H        0.860     0.153     1.382     1.841
    20   1 H        0.860     0.139     1.479     1.905
    21   1 H        0.924     0.071     2.072     2.251
    22   1 H        0.924     0.032     2.565     2.504
    23   1 H        0.860     0.169     1.277     1.770
    24   1 H        0.860     0.169     1.278     1.771
    25   1 H        0.860     0.132     1.528     1.936
    26   1 H        0.805     0.320     0.663     1.279

 Mol. C6AA /au·bohr⁶  :       5781.569926
 Mol. C8AA /au·bohr⁸  :     123626.220258
 Mol. α(0) /au        :        112.768310


Wiberg/Mayer (AO) data.
largest (>0.10) Wiberg bond orders for each atom

 ---------------------------------------------------------------------------
     #   Z sym  total        # sym  WBO       # sym  WBO       # sym  WBO
 ---------------------------------------------------------------------------
     1   6 C    3.997 --     2 C    1.009     8 C    0.998    13 H    0.975
                            14 H    0.974
     2   6 C    3.995 --     1 C    1.009     3 C    0.994    15 H    0.975
                            16 H    0.974
     3   6 C    3.985 --     7 N    1.029     2 C    0.994    17 H    0.961
                             4 C    0.915
     4   6 C    3.922 --     6 O    1.034     5 O    0.991     3 C    0.915
                             9 N    0.905
     5   8 O    1.986 --     4 C    0.991    26 H    0.875
     6   8 O    1.958 --     4 C    1.034    18 H    0.751
     7   7 N    3.017 --     3 C    1.029    19 H    0.960    20 H    0.959
     8   6 C    3.972 --     1 C    0.998     9 N    0.989    21 H    0.963
                            22 H    0.962
     9   7 N    3.374 --    10 C    1.179     8 C    0.989     4 C    0.905
                            12 N    0.116
    10   6 C    3.964 --    12 N    1.592     9 N    1.179    11 N    1.138
    11   7 N    3.243 --    10 C    1.138    23 H    0.950    24 H    0.939
                            12 N    0.134
    12   7 N    3.003 --    10 C    1.592    25 H    0.948    11 N    0.134
                             9 N    0.116    18 H    0.114
    13   1 H    0.998 --     1 C    0.975
    14   1 H    0.998 --     1 C    0.974
    15   1 H    0.997 --     2 C    0.975
    16   1 H    0.997 --     2 C    0.974
    17   1 H    0.997 --     3 C    0.961
    18   1 H    0.885 --     6 O    0.751    12 N    0.114
    19   1 H    0.977 --     7 N    0.960
    20   1 H    0.981 --     7 N    0.959
    21   1 H    0.995 --     8 C    0.963
    22   1 H    0.999 --     8 C    0.962
    23   1 H    0.971 --    11 N    0.950
    24   1 H    0.971 --    11 N    0.939
    25   1 H    0.982 --    12 N    0.948
    26   1 H    0.897 --     5 O    0.875
 ---------------------------------------------------------------------------

Topologies differ in total number of bonds
Writing topology from bond orders to xtbtopo.mol

molecular dipole:
                 x           y           z       tot (Debye)
 q only:        0.575       1.127      -0.141
   full:        1.473       1.384      -0.138       5.150
molecular quadrupole (traceless):
                xx          xy          yy          xz          yz          zz
 q only:        1.182       2.550      -0.341       1.379       0.444      -0.841
  q+dip:        3.912       5.254      -2.001       4.099       0.630      -1.911
   full:        3.643       5.074      -1.828       4.310       0.285      -1.815

           -------------------------------------------------
          |                Geometry Summary                 |
           -------------------------------------------------

      molecular mass/u    :      174.2012086
   center of mass at/Å    :        0.0000038      -0.0000037       0.0000026
  moments of inertia/u·Å² :        0.4186555E+03   0.5075260E+03   0.6137165E+03
rotational constants/cm⁻¹ :        0.4026612E-01   0.3321531E-01   0.2746811E-01

 * 23 selected distances

     #   Z          #   Z                                           value/Å
     1   6 C        2   6 C                                       1.5281322
     2   6 C        3   6 C                                       1.5315433 (max)
     4   6 C        5   8 O                                       1.3942210
     4   6 C        6   8 O                                       1.3718324
     3   6 C        7   7 N                                       1.4496650
     1   6 C        8   6 C                                       1.5277455
     8   6 C        9   7 N                                       1.4533961
     9   7 N       10   6 C                                       1.3666567
    10   6 C       11   7 N                                       1.3817972
    10   6 C       12   7 N                                       1.2853729
     1   6 C       13   1 H                                       1.0909139
     1   6 C       14   1 H                                       1.0919777
     2   6 C       15   1 H                                       1.0904445
     2   6 C       16   1 H                                       1.0901607
     3   6 C       17   1 H                                       1.0952188
     6   8 O       18   1 H                                       1.0016224
     7   7 N       19   1 H                                       1.0147640
     7   7 N       20   1 H                                       1.0153108
     8   6 C       21   1 H                                       1.0928323
     8   6 C       22   1 H                                       1.0917737
    11   7 N       23   1 H                                       1.0078300
    11   7 N       24   1 H                                       1.0050163
     5   8 O       26   1 H                                       0.9659957 (min)

 * 6 distinct bonds (by element types)

   Z      Z             #   av. dist./Å        max./Å        min./Å
   1 H    6 C           7     1.0919031     1.0952188     1.0901607
   6 C    6 C           3     1.5291403     1.5315433     1.5277455
   1 H    7 N           4     1.0107303     1.0153108     1.0050163
   6 C    7 N           5     1.3873776     1.4533961     1.2853729
   1 H    8 O           2     0.9838090     1.0016224     0.9659957
   6 C    8 O           2     1.3830267     1.3942210     1.3718324

           -------------------------------------------------
          |               Frequency Printout                |
           -------------------------------------------------
 projected vibrational frequencies (cm⁻¹)
eigval :       -0.00    -0.00    -0.00     0.00     0.00     0.00
eigval :       41.57    77.82   112.23   203.68   231.22   276.49
eigval :      288.46   306.90   318.64   321.88   350.65   374.62
eigval :      413.01   432.95   472.30   494.18   512.02   538.77
eigval :      560.20   599.58   622.31   665.79   674.73   712.97
eigval :      730.50   862.28   870.65   904.22   936.57   973.56
eigval :     1003.22  1014.59  1029.15  1052.43  1067.31  1084.74
eigval :     1112.52  1123.96  1142.37  1159.93  1198.57  1203.82
eigval :     1226.53  1242.09  1271.91  1288.36  1317.15  1329.86
eigval :     1341.50  1344.33  1354.49  1415.42  1460.35  1477.73
eigval :     1485.58  1508.63  1563.98  1649.84  2757.86  2945.42
eigval :     2957.02  2973.62  2984.43  2989.79  2999.28  3003.84
eigval :     3384.85  3414.31  3421.77  3467.42  3514.77  3523.66
 reduced masses (amu)
   1: 12.07   2: 11.95   3: 12.34   4: 11.45   5: 12.07   6: 13.29   7: 12.33   8: 11.96
   9: 10.31  10: 12.54  11:  9.05  12:  2.87  13:  1.90  14:  9.75  15: 11.90  16:  5.39
  17:  9.86  18: 10.82  19: 11.63  20: 10.25  21:  9.29  22: 11.84  23:  4.13  24: 10.44
  25: 10.71  26: 10.98  27: 10.43  28:  8.84  29:  3.34  30:  9.31  31:  3.93  32:  6.63
  33:  8.19  34:  7.32  35:  8.20  36:  5.93  37:  7.21  38:  6.30  39:  7.50  40:  9.65
  41:  6.45  42:  5.39  43:  7.30  44: 10.17  45:  3.75  46:  8.00  47:  5.52  48:  8.23
  49:  6.60  50:  4.92  51:  4.48  52:  6.40  53:  4.48  54:  3.98  55:  4.60  56:  5.20
  57:  4.28  58:  8.33  59:  2.08  60:  3.18  61:  2.82  62:  3.35  63:  2.18  64: 11.96
  65:  1.96  66:  1.74  67:  1.88  68:  1.79  69:  1.72  70:  1.57  71:  1.87  72:  1.58
  73:  1.53  74:  2.05  75:  1.87  76:  1.49  77:  1.87  78:  2.12
 IR intensities (km·mol⁻¹)
   1:  0.85   2:  1.24   3:  1.32   4:  0.10   5:  0.04   6:  0.76   7:  2.86   8:  2.13
   9:  0.48  10:  0.57  11:  1.71  12: 61.83  13: 96.75  14:  9.02  15: 20.15  16: 32.29
  17: 16.84  18:  5.34  19: 18.37  20:  6.72  21:  8.35  22:  6.30  23:152.82  24: 15.34
  25: 19.56  26: 25.99  27: 10.65  28: 11.53  29: 13.12  30:  3.39  31:306.77  32:  5.20
  33: 39.13  34: 25.20  35: 35.34  36:119.90  37:  3.52  38: 46.62  39:107.19  40:156.07
  41: 24.95  42: 16.59  43: 68.50  44: 49.76  45:  7.02  46:  5.64  47: 23.39  48: 31.33
  49: 31.30  50: 24.09  51: 64.31  52: 63.85  53: 25.81  54: 20.46  55: 18.87  56: 27.71
  57:318.84  58:229.71  59:  3.90  60: 55.43  61: 49.05  62:154.62  63: 24.35  64:446.07
  65:794.97  66: 31.61  67: 50.07  68: 11.64  69: 28.55  70: 33.87  71: 51.56  72: 40.19
  73:  9.63  74:  2.01  75: 12.48  76:  3.01  77: 35.51  78:  4.29
 Raman intensities (amu)
   1:  0.00   2:  0.00   3:  0.00   4:  0.00   5:  0.00   6:  0.00   7:  0.00   8:  0.00
   9:  0.00  10:  0.00  11:  0.00  12:  0.00  13:  0.00  14:  0.00  15:  0.00  16:  0.00
  17:  0.00  18:  0.00  19:  0.00  20:  0.00  21:  0.00  22:  0.00  23:  0.00  24:  0.00
  25:  0.00  26:  0.00  27:  0.00  28:  0.00  29:  0.00  30:  0.00  31:  0.00  32:  0.00
  33:  0.00  34:  0.00  35:  0.00  36:  0.00  37:  0.00  38:  0.00  39:  0.00  40:  0.00
  41:  0.00  42:  0.00  43:  0.00  44:  0.00  45:  0.00  46:  0.00  47:  0.00  48:  0.00
  49:  0.00  50:  0.00  51:  0.00  52:  0.00  53:  0.00  54:  0.00  55:  0.00  56:  0.00
  57:  0.00  58:  0.00  59:  0.00  60:  0.00  61:  0.00  62:  0.00  63:  0.00  64:  0.00
  65:  0.00  66:  0.00  67:  0.00  68:  0.00  69:  0.00  70:  0.00  71:  0.00  72:  0.00
  73:  0.00  74:  0.00  75:  0.00  76:  0.00  77:  0.00  78:  0.00
 output can be read by thermo (or use thermo option).
 writing <g98.out> molden fake output.
 recommended (thermochemical) frequency scaling factor: 1.0
           -------------------------------------------------
          |             Thermodynamic Functions             |
           -------------------------------------------------

Molecule has no symmetry elements
It seems to be the C1 point group
c1  symmetry found (for desy threshold:  0.10E+00) used in thermo

          ...................................................
          :                      SETUP                      :
          :.................................................:
          :  # frequencies                          72      :
          :  # imaginary freq.                       0      :
          :  linear?                             false      :
          :  only rotor calc.                    false      :
          :  symmetry                               c1      :
          :  rotational number                       1      :
          :  scaling factor                  1.0000000      :
          :  rotor cutoff                   50.0000000 cm⁻¹ :
          :  imag. cutoff                  -20.0000000 cm⁻¹ :
          :.................................................:

    mode    ω/cm⁻¹     T·S(HO)/kcal·mol⁻¹    T·S(FR)/kcal·mol⁻¹   T·S(vib)
   ------------------------------------------------------------------------
       1     41.57    -1.54529 ( 32.33%)    -1.11103 ( 67.67%)    -1.25141
       2     77.82    -1.17624 ( 85.44%)    -0.92538 ( 14.56%)    -1.13971
       3    112.23    -0.96303 ( 96.21%)    -0.81695 (  3.79%)    -0.95749
       4    203.68    -0.62600 ( 99.64%)    -0.64042 (  0.36%)    -0.62605
       5    231.22    -0.55738 ( 99.78%)    -0.60286 (  0.22%)    -0.55748
       6    276.49    -0.46370 ( 99.89%)    -0.54989 (  0.11%)    -0.46380
       7    288.46    -0.44215 ( 99.91%)    -0.53734 (  0.09%)    -0.44224
   ------------------------------------------------------------------------

   temp. (K)  partition function   enthalpy   heat capacity  entropy
                                   cal/mol     cal/K/mol   cal/K/mol   J/K/mol
 298.15  VIB  0.169E+04             5845.392     42.123     33.254
         ROT  0.872E+06              888.752      2.981     30.164
         INT  0.148E+10             6734.144     45.103     63.418
         TR   0.222E+28             1481.254      4.968     41.354
         TOT                        8215.3982    50.0716   104.7717   438.3650

       T/K    H(0)-H(T)+PV         H(T)/Eh          T*S/Eh         G(T)/Eh
   ------------------------------------------------------------------------
    298.15    0.130921E-01    0.228810E+00    0.497804E-01    0.179029E+00
   ------------------------------------------------------------------------

         :::::::::::::::::::::::::::::::::::::::::::::::::::::
         ::                  THERMODYNAMIC                  ::
         :::::::::::::::::::::::::::::::::::::::::::::::::::::
         :: total free energy         -39.650608198750 Eh   ::
         ::.................................................::
         :: total energy              -39.829637544728 Eh   ::
         :: zero point energy           0.215717714194 Eh   ::
         :: G(RRHO) w/o ZPVE           -0.036688368216 Eh   ::
         :: G(RRHO) contrib.            0.179029345978 Eh   ::
         :::::::::::::::::::::::::::::::::::::::::::::::::::::

optimized geometry written to: xtbopt.xyz


           -------------------------------------------------
          | TOTAL ENERGY              -39.829637544728 Eh   |
          | TOTAL ENTHALPY            -39.600827760173 Eh   |
          | TOTAL FREE ENERGY         -39.650608198750 Eh   |
          | GRADIENT NORM               0.000077507218 Eh/α |
          | HOMO-LUMO GAP               4.486290561038 eV   |
           -------------------------------------------------

------------------------------------------------------------------------
 * finished run on 2025/07/30 at 12:34:52.640     
------------------------------------------------------------------------
 total:
 * wall-time:     0 d,  0 h,  0 min,  1.072 sec
 *  cpu-time:     0 d,  0 h,  0 min,  8.293 sec
 * ratio c/w:     7.736 speedup
 SCF:
 * wall-time:     0 d,  0 h,  0 min,  0.020 sec
 *  cpu-time:     0 d,  0 h,  0 min,  0.161 sec
 * ratio c/w:     7.899 speedup
 ANC optimizer:
 * wall-time:     0 d,  0 h,  0 min,  0.064 sec
 *  cpu-time:     0 d,  0 h,  0 min,  0.511 sec
 * ratio c/w:     7.951 speedup
 analytical hessian:
 * wall-time:     0 d,  0 h,  0 min,  0.967 sec
 *  cpu-time:     0 d,  0 h,  0 min,  7.474 sec
 * ratio c/w:     7.730 speedup

