 Entering Gaussian System
 *********************************************
 Gaussian 98:
 frequency output generated by the xtb code
 *********************************************
                         Standard orientation:
 --------------------------------------------------------------------
  Center     Atomic     Atomic              Coordinates (Angstroms)
  Number     Number      Type              X           Y           Z
 --------------------------------------------------------------------
    1          6             0       -1.112178   -1.492718   -0.108101
    2          6             0       -0.705683   -0.139588    0.476282
    3          6             0        0.773312    0.092816    0.114539
    4          8             0        1.681063   -0.412150    0.710059
    5          8             0        0.931854    0.880969   -0.942502
    6          7             0       -1.490606    0.932317   -0.133642
    7          1             0       -0.445275   -2.266003    0.262438
    8          1             0       -2.132175   -1.740755    0.179447
    9          1             0       -1.049944   -1.463547   -1.193992
   10          1             0       -0.786815   -0.181241    1.571926
   11          1             0        0.036602    1.186057   -1.215141
   12          1             0       -2.455743    0.649538   -0.258252
   13          1             0       -1.481542    1.763490    0.448060
 --------------------------------------------------------------------
     1 basis functions        1 primitive gaussians
     1 alpha electrons        1 beta electrons
 
 Harmonic frequencies (cm**-1), IR intensities (km*mol⁻¹),
 Raman scattering activities (A**4/amu), Raman depolarization ratios,
 reduced masses (AMU), force constants (mDyne/A) and normal coordinates:
                      1                      2                      3
                        a                      a                      a 
 Frequencies --    68.2760               208.2657               230.9015
 Red. masses --    12.3664                 3.0060                 8.5241
 Frc consts  --     0.0000                 0.0000                 0.0000
 IR Inten    --     2.6768                 1.4737                 1.5142
 Raman Activ --     0.0000                 0.0000                 0.0000
 Depolar     --     0.0000                 0.0000                 0.0000
 Atom AN      X      Y      Z        X      Y      Z        X      Y      Z
   1   6     0.02  -0.09   0.37    -0.24  -0.06   0.02     0.48   0.15  -0.05
   2   6    -0.01   0.09  -0.03     0.03  -0.08  -0.10    -0.06   0.24   0.12
   3   6     0.01   0.02  -0.05     0.03  -0.01  -0.04    -0.07   0.04   0.07
   4   8    -0.05  -0.39  -0.31     0.02   0.12   0.11    -0.20  -0.29  -0.02
   5   8     0.09   0.45   0.29     0.15   0.10   0.05    -0.03  -0.25  -0.12
   6   7    -0.03  -0.07  -0.31     0.02  -0.08  -0.07    -0.17   0.14   0.05
   7   1     0.03   0.02   0.16     0.21   0.03  -0.40     0.36   0.15  -0.19
   8   1     0.01  -0.02   0.15     0.10  -0.19   0.46     0.24  -0.20   0.12
   9   1    -0.01  -0.12   0.11    -0.58   0.13  -0.02    -0.02   0.16  -0.02
  10   1    -0.00   0.11  -0.01     0.04  -0.01  -0.02    -0.04   0.06   0.03
  11   1     0.02   0.13   0.09     0.05  -0.01  -0.04     0.00   0.01   0.02
  12   1     0.03  -0.08  -0.20    -0.02   0.01   0.10     0.00  -0.06  -0.14
  13   1    -0.13  -0.02  -0.08     0.10   0.01  -0.06    -0.21  -0.00   0.07
                      4                      5                      6
                        a                      a                      a 
 Frequencies --   258.2925               329.0486               370.6353
 Red. masses --     3.5476                11.2920                 9.9892
 Frc consts  --     0.0000                 0.0000                 0.0000
 IR Inten    --    43.8220                12.8070                 0.8768
 Raman Activ --     0.0000                 0.0000                 0.0000
 Depolar     --     0.0000                 0.0000                 0.0000
 Atom AN      X      Y      Z        X      Y      Z        X      Y      Z
   1   6    -0.21   0.03  -0.02    -0.07  -0.05   0.06    -0.15   0.39  -0.10
   2   6     0.03  -0.07   0.02     0.05   0.02  -0.17     0.09   0.15   0.22
   3   6     0.08  -0.04   0.01     0.03   0.05  -0.19     0.14   0.03   0.16
   4   8     0.19   0.15   0.04    -0.19   0.02   0.10     0.29  -0.07  -0.10
   5   8    -0.13  -0.10  -0.03     0.57   0.05  -0.20     0.07  -0.09   0.06
   6   7     0.19   0.09   0.04    -0.38  -0.04   0.32    -0.34  -0.40  -0.14
   7   1    -0.07  -0.03  -0.07    -0.08  -0.02   0.10    -0.13  -0.01  -0.12
   8   1    -0.05   0.04   0.05    -0.04   0.06   0.00    -0.08   0.19  -0.08
   9   1    -0.12   0.03  -0.01     0.02  -0.11   0.02    -0.03   0.24  -0.03
  10   1    -0.00  -0.02  -0.00     0.12  -0.03  -0.04     0.00   0.06   0.06
  11   1    -0.07   0.05   0.14     0.21   0.10  -0.12     0.02  -0.06  -0.02
  12   1     0.19  -0.16  -0.62    -0.06  -0.13   0.02    -0.07  -0.24   0.08
  13   1    -0.44  -0.17   0.29    -0.25  -0.10   0.22    -0.15   0.01  -0.20
                      7                      8                      9
                        a                      a                      a 
 Frequencies --   524.7679               596.9526               697.7090
 Red. masses --    12.9027                11.5915                 9.2061
 Frc consts  --     0.0000                 0.0000                 0.0000
 IR Inten    --     5.3587                 9.8630                 2.2006
 Raman Activ --     0.0000                 0.0000                 0.0000
 Depolar     --     0.0000                 0.0000                 0.0000
 Atom AN      X      Y      Z        X      Y      Z        X      Y      Z
   1   6    -0.03  -0.17  -0.02    -0.03  -0.03   0.01    -0.07  -0.16  -0.07
   2   6    -0.34   0.03  -0.10    -0.19  -0.13   0.40     0.06  -0.02  -0.11
   3   6    -0.03  -0.11   0.20    -0.35   0.20   0.09     0.14   0.61   0.42
   4   8     0.48   0.17  -0.29    -0.19   0.18  -0.35     0.00  -0.26  -0.06
   5   8     0.18  -0.22   0.23     0.34  -0.05  -0.01    -0.05   0.01  -0.13
   6   7    -0.30   0.31  -0.04     0.30  -0.19   0.04     0.01   0.04   0.03
   7   1     0.07   0.05   0.06    -0.01  -0.05  -0.08    -0.06  -0.06   0.02
   8   1     0.02  -0.15  -0.00    -0.02  -0.06  -0.08    -0.02   0.06   0.08
   9   1     0.01  -0.12  -0.00     0.04   0.14   0.01    -0.09  -0.16  -0.02
  10   1    -0.19   0.00  -0.04    -0.07  -0.04   0.11    -0.09  -0.10  -0.04
  11   1     0.10   0.01  -0.02     0.18   0.07  -0.19    -0.06  -0.37  -0.27
  12   1    -0.10   0.12   0.02     0.08   0.04  -0.16     0.01   0.01  -0.03
  13   1    -0.03   0.04   0.05     0.06  -0.01  -0.05    -0.01  -0.03   0.07
                     10                     11                     12
                        a                      a                      a 
 Frequencies --   721.1699               817.4163               924.8779
 Red. masses --     4.2325                10.5269                 6.1712
 Frc consts  --     0.0000                 0.0000                 0.0000
 IR Inten    --   191.4767                13.2947                39.2357
 Raman Activ --     0.0000                 0.0000                 0.0000
 Depolar     --     0.0000                 0.0000                 0.0000
 Atom AN      X      Y      Z        X      Y      Z        X      Y      Z
   1   6    -0.05  -0.11  -0.03     0.14   0.17  -0.02    -0.04   0.33  -0.09
   2   6     0.02  -0.03  -0.01     0.34   0.06  -0.32    -0.22   0.04  -0.19
   3   6     0.07   0.32   0.20    -0.36  -0.02   0.13     0.04  -0.00  -0.00
   4   8     0.00  -0.07   0.00    -0.15   0.17  -0.23     0.05  -0.00   0.00
   5   8    -0.01  -0.17  -0.23    -0.07  -0.29   0.35     0.02  -0.01  -0.02
   6   7    -0.01  -0.05  -0.07     0.11  -0.03  -0.04     0.06  -0.34   0.31
   7   1    -0.04  -0.05  -0.01    -0.05   0.01   0.07     0.14   0.35   0.26
   8   1    -0.02   0.03   0.03     0.03   0.27   0.18     0.06  -0.01   0.14
   9   1    -0.04  -0.05  -0.01    -0.10  -0.14  -0.01    -0.03  -0.29  -0.03
  10   1    -0.08  -0.04  -0.01     0.08  -0.06  -0.09    -0.06  -0.22  -0.05
  11   1     0.05   0.65   0.52     0.08   0.07  -0.03    -0.03   0.00   0.08
  12   1    -0.03   0.03   0.11     0.04  -0.16   0.16     0.03   0.10  -0.29
  13   1     0.08  -0.00  -0.03    -0.05  -0.10   0.13     0.15   0.11  -0.24
                     13                     14                     15
                        a                      a                      a 
 Frequencies --   975.4931              1006.0984              1049.0571
 Red. masses --     4.8695                 4.6228                 5.6816
 Frc consts  --     0.0000                 0.0000                 0.0000
 IR Inten    --    54.3972                 5.4673                46.7828
 Raman Activ --     0.0000                 0.0000                 0.0000
 Depolar     --     0.0000                 0.0000                 0.0000
 Atom AN      X      Y      Z        X      Y      Z        X      Y      Z
   1   6    -0.11   0.31   0.12    -0.29  -0.18  -0.22     0.23   0.02  -0.15
   2   6    -0.23  -0.15  -0.11     0.12   0.26   0.16    -0.10   0.00   0.30
   3   6     0.06   0.02   0.04    -0.03  -0.01  -0.00    -0.06  -0.26   0.01
   4   8     0.06  -0.05   0.04    -0.03   0.01  -0.00     0.09  -0.03   0.10
   5   8    -0.02   0.07  -0.10    -0.02   0.00   0.01    -0.01   0.22  -0.22
   6   7     0.20  -0.12  -0.19     0.20   0.09   0.02     0.04   0.09  -0.10
   7   1     0.14   0.26   0.10     0.13   0.21   0.13    -0.13  -0.10   0.06
   8   1     0.01  -0.17  -0.06    -0.00  -0.34  -0.07     0.05   0.34   0.25
   9   1     0.10   0.09   0.04     0.05  -0.25  -0.05    -0.20  -0.26  -0.05
  10   1    -0.21   0.03  -0.04     0.05  -0.03   0.04    -0.40  -0.26   0.04
  11   1     0.02   0.02  -0.07     0.02   0.03  -0.02     0.07   0.10  -0.15
  12   1     0.00  -0.11   0.34     0.14  -0.43   0.27     0.01  -0.09   0.11
  13   1     0.00  -0.36   0.46    -0.27   0.16  -0.19    -0.09  -0.00   0.03
                     16                     17                     18
                        a                      a                      a 
 Frequencies --  1132.3339              1152.3579              1199.2109
 Red. masses --     8.4884                 7.7372                 4.3794
 Frc consts  --     0.0000                 0.0000                 0.0000
 IR Inten    --     7.1269                18.3793                 8.8445
 Raman Activ --     0.0000                 0.0000                 0.0000
 Depolar     --     0.0000                 0.0000                 0.0000
 Atom AN      X      Y      Z        X      Y      Z        X      Y      Z
   1   6    -0.01  -0.12   0.08     0.06  -0.21  -0.13     0.09   0.03   0.29
   2   6    -0.02   0.27  -0.31    -0.23   0.51  -0.01    -0.13  -0.12  -0.31
   3   6    -0.20  -0.22   0.33     0.11   0.04  -0.19     0.04   0.04  -0.05
   4   8     0.19  -0.09   0.11    -0.06   0.06  -0.05    -0.06   0.04  -0.05
   5   8    -0.16   0.16  -0.20     0.08  -0.07   0.12     0.09  -0.01  -0.00
   6   7     0.11  -0.15   0.21     0.16  -0.27   0.13     0.12   0.09   0.18
   7   1    -0.01  -0.09  -0.10    -0.10  -0.15  -0.06    -0.04  -0.14  -0.13
   8   1    -0.03  -0.02  -0.09    -0.01   0.10   0.03    -0.03   0.05  -0.08
   9   1     0.04   0.16   0.02    -0.11  -0.09  -0.04     0.04   0.28   0.07
  10   1    -0.03   0.24  -0.07    -0.23   0.36  -0.01    -0.40  -0.23  -0.12
  11   1     0.19   0.29  -0.36    -0.13  -0.19   0.23    -0.11  -0.15   0.19
  12   1     0.06  -0.06  -0.09     0.02  -0.01   0.07     0.12  -0.32   0.12
  13   1     0.06   0.03  -0.07     0.10  -0.16   0.16    -0.16   0.23  -0.26
                     19                     20                     21
                        a                      a                      a 
 Frequencies --  1269.4242              1281.0283              1298.8881
 Red. masses --     6.6478                 7.8430                 4.3434
 Frc consts  --     0.0000                 0.0000                 0.0000
 IR Inten    --   368.9964               239.1821                42.2273
 Raman Activ --     0.0000                 0.0000                 0.0000
 Depolar     --     0.0000                 0.0000                 0.0000
 Atom AN      X      Y      Z        X      Y      Z        X      Y      Z
   1   6    -0.10  -0.04   0.07     0.16   0.02  -0.01    -0.01  -0.09   0.14
   2   6     0.28   0.15   0.06    -0.51  -0.08  -0.04    -0.11   0.47  -0.02
   3   6     0.26   0.14  -0.32     0.26   0.21  -0.22    -0.06  -0.06   0.05
   4   8    -0.07   0.00   0.03     0.04  -0.06   0.06     0.05  -0.00   0.01
   5   8    -0.19  -0.17   0.26    -0.17  -0.15   0.20     0.02   0.03  -0.04
   6   7    -0.08  -0.05   0.02     0.14   0.03   0.01     0.03  -0.08  -0.13
   7   1     0.03   0.01  -0.04    -0.08  -0.09   0.01    -0.02  -0.10  -0.10
   8   1    -0.02  -0.13  -0.08     0.01   0.15   0.04    -0.04  -0.06  -0.11
   9   1     0.05   0.04   0.02    -0.10  -0.01  -0.01     0.01   0.08   0.03
  10   1    -0.47  -0.21  -0.04     0.40   0.00   0.03     0.29  -0.72  -0.01
  11   1     0.20   0.24  -0.34     0.16   0.21  -0.28    -0.04  -0.05   0.07
  12   1    -0.04   0.12  -0.11     0.05  -0.14   0.11    -0.03   0.07   0.01
  13   1     0.08  -0.03   0.03    -0.12   0.07  -0.08     0.05  -0.13   0.13
                     22                     23                     24
                        a                      a                      a 
 Frequencies --  1401.2337              1485.3906              1487.0902
 Red. masses --     3.0632                 1.5385                 1.6072
 Frc consts  --     0.0000                 0.0000                 0.0000
 IR Inten    --     6.8002                 5.8846                 3.8104
 Raman Activ --     0.0000                 0.0000                 0.0000
 Depolar     --     0.0000                 0.0000                 0.0000
 Atom AN      X      Y      Z        X      Y      Z        X      Y      Z
   1   6     0.09   0.39   0.15     0.10   0.05  -0.18     0.20  -0.04   0.09
   2   6     0.01  -0.04  -0.01     0.03   0.03  -0.03     0.07  -0.03   0.01
   3   6    -0.01  -0.01   0.03     0.00  -0.00   0.01    -0.01  -0.01   0.02
   4   8    -0.01   0.00  -0.01    -0.01   0.00  -0.01    -0.01   0.00  -0.01
   5   8     0.00   0.01  -0.01    -0.00  -0.00  -0.00     0.00   0.01  -0.01
   6   7    -0.01   0.01   0.01    -0.02   0.01   0.00     0.01  -0.01  -0.00
   7   1    -0.27  -0.35  -0.32    -0.47  -0.16   0.50     0.06   0.15   0.26
   8   1     0.07  -0.43  -0.19     0.19  -0.44   0.25    -0.15  -0.01  -0.58
   9   1    -0.07  -0.52  -0.00    -0.11   0.37  -0.01    -0.70   0.04  -0.03
  10   1     0.00   0.06   0.00    -0.01  -0.03  -0.01    -0.02   0.03   0.00
  11   1     0.00   0.01   0.00    -0.00  -0.00  -0.00    -0.00  -0.00   0.01
  12   1     0.01  -0.03  -0.01     0.02  -0.04  -0.03    -0.02   0.06   0.00
  13   1     0.04   0.00  -0.00     0.06  -0.01   0.01    -0.05   0.01  -0.01
                     25                     26                     27
                        a                      a                      a 
 Frequencies --  1545.9586              1810.3329              2881.5524
 Red. masses --     2.1098                13.3493                 1.7396
 Frc consts  --     0.0000                 0.0000                 0.0000
 IR Inten    --    39.8120               471.0845                50.3464
 Raman Activ --     0.0000                 0.0000                 0.0000
 Depolar     --     0.0000                 0.0000                 0.0000
 Atom AN      X      Y      Z        X      Y      Z        X      Y      Z
   1   6    -0.01   0.02  -0.00     0.00   0.01   0.00     0.00   0.01  -0.01
   2   6     0.04   0.01  -0.07     0.04  -0.01   0.01    -0.03  -0.00   0.26
   3   6    -0.01  -0.01   0.01    -0.59   0.34  -0.40    -0.00  -0.00   0.01
   4   8     0.01  -0.00   0.00     0.46  -0.25   0.29    -0.00   0.00  -0.00
   5   8    -0.00   0.01  -0.00     0.04  -0.03   0.04     0.00  -0.00  -0.00
   6   7     0.21  -0.19   0.02     0.01  -0.00   0.01     0.00  -0.01   0.01
   7   1    -0.05  -0.04  -0.00    -0.01  -0.01   0.00     0.01  -0.01   0.00
   8   1     0.03  -0.06   0.05     0.00  -0.01  -0.01    -0.02  -0.00   0.00
   9   1     0.05   0.01   0.01    -0.00   0.00  -0.00    -0.00   0.00   0.04
  10   1    -0.04   0.02  -0.02    -0.04   0.01  -0.01     0.08   0.03  -0.96
  11   1     0.00  -0.01  -0.00    -0.05  -0.04   0.05    -0.01   0.01  -0.01
  12   1    -0.20   0.60   0.22     0.00  -0.01   0.00     0.01  -0.00   0.00
  13   1    -0.65   0.08  -0.10     0.01   0.00  -0.00     0.01   0.01   0.00
                     28                     29                     30
                        a                      a                      a 
 Frequencies --  3022.7111              3036.9014              3058.4111
 Red. masses --     1.7889                 1.6770                 1.6943
 Frc consts  --     0.0000                 0.0000                 0.0000
 IR Inten    --    28.7974                19.3867                 8.4580
 Raman Activ --     0.0000                 0.0000                 0.0000
 Depolar     --     0.0000                 0.0000                 0.0000
 Atom AN      X      Y      Z        X      Y      Z        X      Y      Z
   1   6    -0.24  -0.05   0.09     0.01  -0.01   0.25    -0.15   0.18  -0.09
   2   6    -0.01  -0.00   0.01     0.00   0.00   0.02    -0.00   0.01  -0.01
   3   6     0.00  -0.00  -0.00    -0.00  -0.00   0.00    -0.00   0.00  -0.00
   4   8    -0.00   0.00  -0.00     0.00   0.00  -0.00     0.00  -0.00   0.00
   5   8    -0.00   0.00  -0.00     0.00   0.00  -0.00    -0.00   0.00  -0.00
   6   7     0.00   0.00   0.00    -0.00  -0.00  -0.00     0.00  -0.00   0.00
   7   1    -0.01  -0.04   0.03    -0.01   0.01   0.02     0.60  -0.68   0.33
   8   1     0.90   0.21  -0.26    -0.10  -0.03   0.06    -0.06   0.01  -0.00
   9   1    -0.03   0.00  -0.10     0.06   0.03  -0.96    -0.02   0.02  -0.03
  10   1     0.00   0.00  -0.02     0.00   0.00  -0.03    -0.00  -0.00   0.01
  11   1     0.01  -0.00   0.00    -0.00   0.00  -0.00     0.01  -0.00   0.00
  12   1    -0.00  -0.00   0.00     0.00   0.00   0.00    -0.00  -0.00  -0.00
  13   1    -0.00  -0.00  -0.00     0.00   0.00   0.00     0.00   0.00  -0.00
                     31                     32                     33
                        a                      a                      a 
 Frequencies --  3148.8003              3400.4231              3427.6706
 Red. masses --     1.8555                 1.5316                 2.0663
 Frc consts  --     0.0000                 0.0000                 0.0000
 IR Inten    --   230.4811                 4.8043                 1.6749
 Raman Activ --     0.0000                 0.0000                 0.0000
 Depolar     --     0.0000                 0.0000                 0.0000
 Atom AN      X      Y      Z        X      Y      Z        X      Y      Z
   1   6    -0.00  -0.00   0.00    -0.00   0.00   0.00     0.00   0.00  -0.00
   2   6     0.00   0.00  -0.01     0.00  -0.00  -0.01    -0.01  -0.00  -0.00
   3   6     0.01  -0.02   0.03    -0.00  -0.00   0.00     0.00  -0.00   0.00
   4   8    -0.00   0.00  -0.01     0.00  -0.00   0.00    -0.00   0.00  -0.00
   5   8     0.22  -0.07   0.06    -0.00   0.00  -0.00     0.00  -0.00   0.00
   6   7     0.00  -0.00   0.00     0.12  -0.13  -0.09    -0.20  -0.17  -0.11
   7   1     0.00  -0.01   0.00    -0.00   0.00  -0.00     0.00  -0.00   0.00
   8   1     0.01   0.00  -0.00     0.00   0.00  -0.00     0.00   0.00  -0.00
   9   1    -0.00   0.00  -0.00    -0.00   0.00   0.00    -0.00   0.00   0.01
  10   1     0.00  -0.00   0.02    -0.00   0.00   0.00     0.00  -0.00   0.01
  11   1    -0.85   0.33  -0.32     0.02  -0.01   0.00    -0.01   0.00  -0.01
  12   1    -0.02  -0.01   0.01    -0.51  -0.18  -0.10     0.76   0.22   0.11
  13   1    -0.00   0.01   0.01     0.04   0.67   0.45    -0.01   0.44   0.31
