 Entering Gaussian System
 *********************************************
 Gaussian 98:
 frequency output generated by the xtb code
 *********************************************
                         Standard orientation:
 --------------------------------------------------------------------
  Center     Atomic     Atomic              Coordinates (Angstroms)
  Number     Number      Type              X           Y           Z
 --------------------------------------------------------------------
    1          6             0       -0.772785    2.059754   -0.366202
    2          6             0       -1.996803    1.149035   -0.355338
    3          6             0       -1.639991   -0.192081    0.286057
    4          6             0       -0.454664   -0.862371   -0.460383
    5          8             0       -0.837325   -1.057938   -1.791375
    6          8             0       -0.162679   -2.074445    0.109589
    7          7             0       -1.229234    0.008353    1.669452
    8          6             0        0.362882    1.332587   -1.086697
    9          7             0        0.685430    0.073051   -0.441641
   10          6             0        1.661768   -0.016242    0.505769
   11          7             0        2.285944    1.159723    0.877027
   12          7             0        2.041751   -1.173496    0.913859
   13          1             0       -0.997097    2.996627   -0.877739
   14          1             0       -0.492458    2.277426    0.665901
   15          1             0       -2.331829    0.962308   -1.375631
   16          1             0       -2.812097    1.611386    0.204614
   17          1             0       -2.489485   -0.887477    0.183109
   18          1             0        0.772397   -2.025005    0.476492
   19          1             0       -0.857942   -0.865954    2.029376
   20          1             0       -2.035926    0.257080    2.232512
   21          1             0        0.032491    1.083668   -2.099513
   22          1             0        1.268280    1.935342   -1.159995
   23          1             0        2.933521    1.065923    1.644166
   24          1             0        1.724655    1.993835    0.915123
   25          1             0        2.764000   -1.155804    1.622892
   26          1             0       -0.349817   -1.825400   -2.116475
 --------------------------------------------------------------------
     1 basis functions        1 primitive gaussians
     1 alpha electrons        1 beta electrons
 
 Harmonic frequencies (cm**-1), IR intensities (km*mol⁻¹),
 Raman scattering activities (A**4/amu), Raman depolarization ratios,
 reduced masses (AMU), force constants (mDyne/A) and normal coordinates:
                      1                      2                      3
                        a                      a                      a 
 Frequencies --    42.2661                80.0730               131.2456
 Red. masses --    12.3888                11.6990                10.7428
 Frc consts  --     0.0000                 0.0000                 0.0000
 IR Inten    --     2.1181                 4.5722                 1.2660
 Raman Activ --     0.0000                 0.0000                 0.0000
 Depolar     --     0.0000                 0.0000                 0.0000
 Atom AN      X      Y      Z        X      Y      Z        X      Y      Z
   1   6    -0.10   0.03   0.04    -0.01   0.00  -0.15    -0.33  -0.05  -0.13
   2   6    -0.08   0.01  -0.15     0.02  -0.03  -0.05    -0.19  -0.24  -0.18
   3   6    -0.13   0.03  -0.10     0.08   0.05   0.08     0.01  -0.05   0.08
   4   6    -0.01   0.03   0.10    -0.01  -0.02  -0.00     0.01   0.02   0.02
   5   8     0.18  -0.11   0.07    -0.13  -0.03   0.04     0.07   0.22  -0.03
   6   8    -0.07   0.13   0.34     0.00  -0.00   0.02     0.01  -0.07  -0.18
   7   7    -0.37   0.05  -0.04     0.32   0.24  -0.01     0.24   0.35  -0.04
   8   6    -0.02   0.07   0.14     0.04  -0.02  -0.04    -0.06   0.07   0.16
   9   7    -0.06   0.07   0.15     0.02  -0.05  -0.08    -0.05   0.09   0.21
  10   6     0.16  -0.06  -0.10    -0.05  -0.05   0.01     0.04  -0.06   0.07
  11   7     0.14  -0.09   0.02    -0.45  -0.01   0.47     0.30  -0.16  -0.04
  12   7     0.34  -0.14  -0.45     0.20  -0.10  -0.34    -0.11  -0.12   0.09
  13   1    -0.01   0.02   0.01    -0.01  -0.02  -0.08    -0.11  -0.05  -0.09
  14   1    -0.06  -0.00   0.02    -0.02   0.05  -0.05    -0.15   0.04  -0.03
  15   1     0.02   0.00  -0.06     0.00  -0.04  -0.01    -0.00  -0.13  -0.06
  16   1    -0.05  -0.00  -0.08     0.00   0.00  -0.03    -0.10  -0.08  -0.11
  17   1    -0.03  -0.00  -0.06     0.02   0.01   0.08     0.03  -0.05   0.11
  18   1     0.03  -0.00  -0.02     0.03  -0.02  -0.07    -0.01  -0.02  -0.01
  19   1    -0.09   0.02  -0.01     0.08   0.07   0.02     0.09   0.13   0.04
  20   1    -0.13  -0.02  -0.04     0.11   0.10   0.02     0.09   0.13   0.01
  21   1     0.02   0.03   0.03     0.04   0.00  -0.02     0.06   0.02   0.02
  22   1    -0.01   0.03   0.07     0.02  -0.01   0.02    -0.04   0.06   0.11
  23   1     0.08  -0.05  -0.04    -0.15  -0.01   0.15     0.10  -0.08  -0.03
  24   1     0.01  -0.05   0.09    -0.18  -0.04   0.15     0.10  -0.03   0.04
  25   1     0.12  -0.07  -0.15     0.02  -0.04  -0.06    -0.00  -0.05  -0.00
  26   1     0.09  -0.01   0.04    -0.03   0.00  -0.01    -0.02   0.03  -0.01
                      4                      5                      6
                        a                      a                      a 
 Frequencies --   198.2019               223.4940               264.0513
 Red. masses --    11.8800                 9.5950                 3.2423
 Frc consts  --     0.0000                 0.0000                 0.0000
 IR Inten    --     2.2180                 3.1286                87.6049
 Raman Activ --     0.0000                 0.0000                 0.0000
 Depolar     --     0.0000                 0.0000                 0.0000
 Atom AN      X      Y      Z        X      Y      Z        X      Y      Z
   1   6    -0.03   0.04   0.37     0.11  -0.17   0.38     0.02  -0.06   0.00
   2   6    -0.06   0.08   0.02     0.08  -0.12  -0.21    -0.02  -0.00  -0.03
   3   6     0.01   0.04  -0.14     0.00  -0.03  -0.01    -0.05  -0.01  -0.04
   4   6    -0.01  -0.05  -0.10     0.02  -0.05   0.00    -0.07  -0.03   0.01
   5   8     0.29  -0.36  -0.15    -0.30   0.03   0.08    -0.07   0.13   0.04
   6   8    -0.16   0.06   0.22     0.16  -0.10  -0.15    -0.15  -0.01   0.14
   7   7     0.38   0.13  -0.27    -0.21   0.35  -0.01     0.12  -0.01  -0.09
   8   6    -0.14   0.10   0.13     0.05   0.01   0.12     0.03  -0.08   0.03
   9   7    -0.05   0.01  -0.08     0.09  -0.12  -0.15    -0.01  -0.11   0.03
  10   6    -0.09  -0.00  -0.04     0.03  -0.01  -0.05     0.00  -0.03   0.03
  11   7    -0.05  -0.03  -0.06    -0.09   0.08  -0.09    -0.07   0.07  -0.13
  12   7    -0.15  -0.00   0.02     0.10   0.06   0.05     0.08   0.02   0.07
  13   1     0.02   0.07   0.20     0.08   0.04   0.25     0.03  -0.01   0.00
  14   1    -0.01  -0.11   0.13     0.00  -0.22   0.15    -0.00  -0.03   0.01
  15   1     0.02   0.08  -0.02     0.16  -0.04  -0.10    -0.01   0.01  -0.01
  16   1    -0.04  -0.02   0.01    -0.05  -0.05  -0.16     0.00   0.01  -0.00
  17   1    -0.00   0.01   0.02     0.01  -0.03   0.01    -0.02  -0.00   0.01
  18   1    -0.03   0.01   0.04     0.02  -0.00  -0.01    -0.03  -0.03  -0.01
  19   1     0.10   0.03  -0.07    -0.12   0.11   0.11     0.15   0.02  -0.08
  20   1     0.15   0.07  -0.02    -0.07   0.20  -0.07     0.03  -0.12   0.03
  21   1    -0.09   0.06   0.05    -0.01   0.06   0.03     0.01  -0.01   0.00
  22   1    -0.04   0.02   0.01     0.02  -0.00   0.04     0.01  -0.03   0.02
  23   1    -0.02  -0.01  -0.01    -0.00   0.04  -0.04     0.04   0.04  -0.08
  24   1     0.00   0.00  -0.03    -0.05   0.00  -0.00    -0.07  -0.02   0.04
  25   1    -0.04  -0.00   0.01     0.02   0.05   0.02     0.03   0.02   0.01
  26   1     0.06  -0.14   0.05    -0.05   0.05  -0.05     0.60   0.56  -0.30
                      7                      8                      9
                        a                      a                      a 
 Frequencies --   275.5594               291.1676               308.3825
 Red. masses --     3.8787                 6.7258                10.3629
 Frc consts  --     0.0000                 0.0000                 0.0000
 IR Inten    --    39.3947                51.9874                 4.6386
 Raman Activ --     0.0000                 0.0000                 0.0000
 Depolar     --     0.0000                 0.0000                 0.0000
 Atom AN      X      Y      Z        X      Y      Z        X      Y      Z
   1   6    -0.03  -0.06   0.04    -0.09  -0.05   0.00    -0.04   0.14  -0.06
   2   6    -0.03  -0.06  -0.10    -0.09  -0.05   0.09     0.12  -0.08  -0.24
   3   6     0.04   0.01   0.00     0.06  -0.03   0.01     0.03   0.00  -0.02
   4   6     0.04   0.06  -0.01     0.10   0.04   0.00    -0.03   0.00  -0.00
   5   8    -0.14  -0.03   0.07    -0.02  -0.05   0.07    -0.39  -0.22   0.16
   6   8     0.04   0.12   0.09     0.10   0.11   0.10     0.07   0.11   0.14
   7   7    -0.11   0.11   0.05    -0.07   0.02   0.03     0.18  -0.37  -0.02
   8   6     0.00   0.07  -0.06    -0.14   0.05  -0.19     0.17   0.27   0.13
   9   7     0.12   0.03  -0.19     0.16   0.07  -0.27    -0.02   0.11  -0.09
  10   6     0.01   0.01  -0.05     0.02   0.04  -0.08    -0.07   0.04  -0.04
  11   7     0.08  -0.12   0.14     0.19  -0.22   0.27     0.10  -0.03   0.01
  12   7    -0.12  -0.02   0.02    -0.17  -0.02  -0.07    -0.14   0.04   0.02
  13   1    -0.00   0.01   0.06    -0.05  -0.00   0.03    -0.03   0.02  -0.04
  14   1    -0.02  -0.08   0.03     0.01  -0.04  -0.00    -0.07   0.07  -0.01
  15   1     0.03  -0.03  -0.04    -0.06  -0.00   0.04     0.15  -0.10  -0.09
  16   1    -0.02  -0.02  -0.05    -0.01  -0.03   0.06    -0.04  -0.03  -0.18
  17   1     0.04  -0.03  -0.01     0.04  -0.04  -0.01    -0.01   0.02  -0.02
  18   1     0.04   0.01  -0.03     0.02   0.04   0.05     0.02   0.05   0.04
  19   1     0.52   0.19  -0.16    -0.26  -0.05   0.11    -0.11  -0.18  -0.05
  20   1    -0.15  -0.58   0.11     0.00   0.26  -0.07     0.10   0.03   0.01
  21   1    -0.00   0.03  -0.02    -0.08  -0.00  -0.04     0.14   0.16  -0.01
  22   1    -0.01   0.04  -0.02    -0.07   0.05  -0.11     0.06   0.08   0.17
  23   1    -0.06  -0.04   0.11    -0.16  -0.08   0.25     0.08  -0.09  -0.05
  24   1     0.11   0.03  -0.10     0.23   0.08  -0.25     0.01  -0.03   0.17
  25   1    -0.05  -0.02   0.03    -0.09  -0.03   0.03    -0.05   0.00   0.02
  26   1    -0.08  -0.04   0.02     0.26   0.20  -0.10     0.00   0.03  -0.02
                     10                     11                     12
                        a                      a                      a 
 Frequencies --   339.7603               358.6446               369.6632
 Red. masses --    12.2584                 9.9395                 9.6433
 Frc consts  --     0.0000                 0.0000                 0.0000
 IR Inten    --    21.9802                10.1909                 5.4882
 Raman Activ --     0.0000                 0.0000                 0.0000
 Depolar     --     0.0000                 0.0000                 0.0000
 Atom AN      X      Y      Z        X      Y      Z        X      Y      Z
   1   6    -0.01   0.27  -0.04    -0.01  -0.04   0.03    -0.17  -0.09  -0.05
   2   6     0.01   0.22   0.14    -0.11   0.10  -0.12    -0.28   0.05   0.20
   3   6    -0.00   0.03  -0.10    -0.15   0.04  -0.17     0.02   0.02  -0.13
   4   6    -0.01  -0.15  -0.03    -0.09   0.01  -0.02     0.09   0.11  -0.12
   5   8    -0.17  -0.43   0.07    -0.33   0.06   0.03    -0.16   0.01  -0.06
   6   8     0.41  -0.18  -0.27     0.00   0.04  -0.01    -0.00   0.21   0.12
   7   7    -0.12   0.22  -0.11     0.17  -0.15  -0.31    -0.05   0.04  -0.14
   8   6    -0.07   0.06   0.10    -0.09  -0.17   0.02     0.06   0.01   0.11
   9   7    -0.14   0.05   0.13    -0.04  -0.04   0.23     0.30  -0.16  -0.27
  10   6    -0.06  -0.03   0.04     0.12   0.03   0.14     0.14  -0.15  -0.02
  11   7     0.05  -0.10   0.04     0.18   0.00   0.16    -0.04  -0.04  -0.03
  12   7     0.01  -0.02   0.04     0.35   0.09   0.10     0.18  -0.05   0.27
  13   1    -0.01   0.03  -0.09     0.05   0.01   0.03    -0.03  -0.06  -0.08
  14   1     0.00   0.17  -0.03    -0.00  -0.06   0.02    -0.07   0.05  -0.03
  15   1    -0.09   0.13   0.06    -0.03   0.06  -0.04    -0.23   0.09   0.09
  16   1     0.05   0.03   0.14    -0.03   0.03  -0.03     0.01   0.00   0.21
  17   1    -0.03   0.05  -0.03    -0.05   0.03  -0.04     0.05  -0.05  -0.05
  18   1     0.08   0.02  -0.00    -0.00   0.02  -0.02    -0.00   0.02   0.02
  19   1     0.08   0.12  -0.01     0.01  -0.07  -0.13    -0.04   0.01  -0.01
  20   1    -0.07  -0.04  -0.04     0.12   0.02  -0.00    -0.02   0.04  -0.06
  21   1    -0.03   0.00   0.03    -0.07  -0.11   0.04     0.09   0.06  -0.00
  22   1    -0.00  -0.01   0.01    -0.04  -0.05  -0.08    -0.02   0.07   0.13
  23   1     0.04  -0.06  -0.02    -0.12   0.05   0.19     0.11  -0.03  -0.11
  24   1     0.03  -0.02   0.05     0.17   0.10  -0.26    -0.13  -0.10   0.22
  25   1     0.02   0.01  -0.01     0.14   0.06  -0.02     0.02   0.05   0.10
  26   1     0.18   0.06  -0.06    -0.17  -0.04  -0.01    -0.12  -0.05  -0.01
                     13                     14                     15
                        a                      a                      a 
 Frequencies --   414.9881               432.6355               479.2713
 Red. masses --     7.5176                11.5960                 8.3147
 Frc consts  --     0.0000                 0.0000                 0.0000
 IR Inten    --    16.0118                13.5807                 2.5165
 Raman Activ --     0.0000                 0.0000                 0.0000
 Depolar     --     0.0000                 0.0000                 0.0000
 Atom AN      X      Y      Z        X      Y      Z        X      Y      Z
   1   6    -0.12   0.25   0.01     0.05  -0.07   0.02    -0.14   0.24   0.06
   2   6     0.05   0.04  -0.07    -0.03   0.03  -0.09     0.01   0.12  -0.17
   3   6     0.09   0.08   0.04    -0.09   0.03  -0.01     0.20   0.19  -0.04
   4   6     0.06   0.02   0.02     0.01   0.09   0.07     0.17  -0.00   0.05
   5   8     0.08   0.06  -0.00     0.05   0.21   0.04    -0.01   0.02   0.14
   6   8     0.09   0.04   0.04     0.51   0.34   0.12    -0.15  -0.19  -0.08
   7   7    -0.01  -0.06   0.11     0.07  -0.06  -0.06     0.01  -0.09   0.07
   8   6    -0.03   0.11   0.23    -0.13  -0.09  -0.19    -0.39  -0.11  -0.06
   9   7     0.03  -0.07  -0.05    -0.14   0.08   0.09     0.22  -0.04  -0.10
  10   6     0.04  -0.26  -0.07    -0.16  -0.16   0.04     0.16  -0.01   0.02
  11   7    -0.27  -0.12  -0.28    -0.20  -0.23  -0.06     0.02   0.04   0.12
  12   7     0.11  -0.19   0.16    -0.06  -0.17   0.06     0.01  -0.05   0.06
  13   1    -0.04   0.01  -0.11     0.03   0.03   0.10     0.00   0.06  -0.02
  14   1    -0.11   0.19  -0.01     0.05  -0.13   0.02    -0.05   0.08   0.01
  15   1     0.10  -0.04  -0.04     0.02   0.00  -0.03     0.12  -0.02  -0.08
  16   1    -0.06  -0.02  -0.10    -0.02   0.02  -0.05    -0.10  -0.03  -0.14
  17   1     0.02   0.03  -0.01    -0.03   0.01   0.00     0.06   0.05  -0.05
  18   1     0.02  -0.00   0.02     0.16   0.13   0.01    -0.06  -0.09   0.02
  19   1    -0.03  -0.04   0.01    -0.01  -0.04  -0.05    -0.04  -0.06  -0.03
  20   1    -0.02  -0.03   0.02     0.06   0.02   0.02    -0.02  -0.06  -0.00
  21   1    -0.02   0.05   0.06    -0.11  -0.11  -0.01    -0.29  -0.13   0.06
  22   1    -0.01   0.03   0.02    -0.04  -0.04  -0.15    -0.13  -0.03  -0.22
  23   1    -0.31   0.16   0.14     0.16  -0.05  -0.20     0.20   0.00  -0.14
  24   1    -0.08  -0.02  -0.46    -0.06  -0.07   0.09    -0.07  -0.05   0.21
  25   1     0.06   0.02   0.01    -0.05  -0.02   0.05    -0.03  -0.03   0.05
  26   1     0.01   0.01   0.00    -0.02   0.03   0.02     0.00   0.02   0.00
                     16                     17                     18
                        a                      a                      a 
 Frequencies --   496.0874               527.1299               548.7296
 Red. masses --    11.6703                 8.2359                 7.3301
 Frc consts  --     0.0000                 0.0000                 0.0000
 IR Inten    --     5.6679                59.6943               136.7185
 Raman Activ --     0.0000                 0.0000                 0.0000
 Depolar     --     0.0000                 0.0000                 0.0000
 Atom AN      X      Y      Z        X      Y      Z        X      Y      Z
   1   6     0.02   0.07   0.02    -0.01  -0.16  -0.03     0.03   0.11   0.03
   2   6     0.11  -0.06   0.08    -0.21   0.13  -0.08     0.13  -0.02   0.02
   3   6     0.14  -0.18  -0.24    -0.13   0.15   0.01    -0.03  -0.07   0.03
   4   6     0.20  -0.17   0.12     0.01   0.11   0.11    -0.09  -0.15  -0.05
   5   8    -0.11   0.33   0.22     0.06  -0.13   0.26     0.03   0.17  -0.21
   6   8     0.07  -0.20   0.30     0.08  -0.00  -0.23     0.07  -0.03   0.19
   7   7    -0.02   0.03  -0.35     0.05  -0.06  -0.00    -0.02   0.03   0.03
   8   6    -0.01   0.01   0.06     0.07  -0.03  -0.06    -0.14  -0.02  -0.07
   9   7     0.02   0.04   0.09     0.07   0.09   0.11    -0.21  -0.05  -0.05
  10   6     0.01   0.05  -0.02     0.27  -0.05  -0.16     0.04  -0.04  -0.31
  11   7    -0.01   0.13  -0.09     0.10   0.20  -0.12     0.21  -0.08   0.01
  12   7    -0.29  -0.09  -0.17    -0.21  -0.15  -0.00     0.09   0.17   0.21
  13   1    -0.03  -0.01  -0.04     0.06   0.03   0.09    -0.02   0.01  -0.02
  14   1     0.00   0.08  -0.01    -0.01  -0.17   0.02     0.03   0.07  -0.01
  15   1    -0.06   0.09   0.03    -0.09   0.03  -0.01     0.09  -0.01  -0.01
  16   1     0.07  -0.08   0.14    -0.02   0.08  -0.00    -0.00  -0.02  -0.04
  17   1     0.05  -0.06  -0.11    -0.02   0.03   0.01    -0.04   0.02   0.03
  18   1     0.05  -0.05   0.03    -0.02   0.02   0.04     0.02   0.03   0.04
  19   1     0.03   0.05  -0.03    -0.02  -0.06  -0.08     0.02   0.03   0.03
  20   1    -0.02   0.02  -0.12     0.06  -0.01   0.06    -0.01  -0.00   0.00
  21   1    -0.02  -0.00   0.03     0.06  -0.03  -0.02    -0.08   0.01  -0.01
  22   1     0.01  -0.01  -0.00    -0.00   0.03   0.02    -0.01  -0.06  -0.02
  23   1    -0.09   0.07   0.05    -0.30   0.05   0.26    -0.29  -0.26   0.28
  24   1    -0.09  -0.02  -0.02    -0.31  -0.17   0.15    -0.16  -0.17   0.36
  25   1    -0.09  -0.14  -0.03    -0.04  -0.13  -0.01     0.08   0.19  -0.00
  26   1    -0.19   0.02  -0.06     0.09  -0.00   0.10    -0.06   0.01  -0.08
                     19                     20                     21
                        a                      a                      a 
 Frequencies --   556.2141               593.5658               640.5151
 Red. masses --    11.4800                11.1959                 8.8453
 Frc consts  --     0.0000                 0.0000                 0.0000
 IR Inten    --     9.4263                20.8158                44.5106
 Raman Activ --     0.0000                 0.0000                 0.0000
 Depolar     --     0.0000                 0.0000                 0.0000
 Atom AN      X      Y      Z        X      Y      Z        X      Y      Z
   1   6    -0.05   0.00  -0.03    -0.02  -0.03   0.04    -0.05  -0.03  -0.05
   2   6    -0.19   0.22  -0.09    -0.05   0.07  -0.03    -0.07   0.05  -0.07
   3   6    -0.21   0.15   0.03     0.05   0.12   0.04     0.23   0.10  -0.06
   4   6    -0.08  -0.15   0.21    -0.02  -0.05  -0.13     0.16   0.06   0.01
   5   8     0.25   0.23   0.20    -0.07  -0.04  -0.29     0.02   0.01   0.14
   6   8     0.19  -0.31   0.01     0.19   0.22   0.09    -0.07  -0.10   0.01
   7   7     0.04  -0.06  -0.03    -0.01   0.01   0.16     0.01  -0.01   0.06
   8   6     0.04  -0.06   0.13    -0.04  -0.32   0.27    -0.02   0.10  -0.13
   9   7     0.04  -0.27  -0.31     0.12  -0.27  -0.03     0.00   0.04  -0.08
  10   6    -0.12   0.09  -0.12    -0.13   0.14   0.25    -0.48  -0.04   0.41
  11   7    -0.02  -0.09   0.05     0.20   0.21  -0.09     0.11  -0.10  -0.23
  12   7    -0.01   0.18  -0.08    -0.20  -0.02  -0.23     0.14   0.03  -0.00
  13   1     0.07   0.01  -0.03     0.08  -0.06  -0.12     0.02   0.07   0.12
  14   1    -0.05  -0.00   0.00    -0.07   0.11   0.00     0.01  -0.16   0.01
  15   1    -0.06   0.06  -0.02     0.04  -0.02  -0.02    -0.09   0.02   0.01
  16   1    -0.04   0.09  -0.03    -0.05   0.02  -0.07     0.02  -0.01   0.06
  17   1    -0.09   0.08   0.02     0.01   0.04   0.03     0.09   0.00  -0.03
  18   1     0.05  -0.01   0.02     0.11   0.08  -0.10     0.03  -0.15  -0.15
  19   1     0.01  -0.05  -0.09    -0.04  -0.03   0.01    -0.05  -0.04  -0.01
  20   1     0.08  -0.01   0.08    -0.03  -0.03   0.02    -0.05  -0.04  -0.04
  21   1     0.10   0.11  -0.02    -0.04  -0.09   0.09     0.05   0.02  -0.05
  22   1     0.03  -0.02   0.18    -0.01  -0.10   0.04    -0.01   0.04   0.02
  23   1     0.05  -0.10  -0.05    -0.10   0.01   0.11    -0.18  -0.12   0.12
  24   1     0.16   0.09  -0.03    -0.02   0.01   0.07    -0.05  -0.07   0.12
  25   1    -0.05   0.09   0.03    -0.07  -0.19  -0.05     0.24   0.08  -0.20
  26   1    -0.03  -0.01   0.07    -0.01   0.00  -0.09    -0.01  -0.00   0.02
                     22                     23                     24
                        a                      a                      a 
 Frequencies --   662.5870               686.9393               722.2383
 Red. masses --     9.4563                 2.6250                 8.6430
 Frc consts  --     0.0000                 0.0000                 0.0000
 IR Inten    --    23.6827                25.9084                20.1289
 Raman Activ --     0.0000                 0.0000                 0.0000
 Depolar     --     0.0000                 0.0000                 0.0000
 Atom AN      X      Y      Z        X      Y      Z        X      Y      Z
   1   6    -0.08  -0.06  -0.10     0.02  -0.06   0.02    -0.01   0.11  -0.02
   2   6    -0.16   0.16  -0.14     0.03  -0.04   0.02    -0.04   0.05   0.02
   3   6     0.29   0.21  -0.03     0.07   0.00  -0.04    -0.33  -0.09   0.12
   4   6     0.11  -0.22  -0.14     0.02   0.07  -0.03    -0.10  -0.17  -0.02
   5   8    -0.11   0.03  -0.29     0.02   0.03   0.09    -0.02   0.02  -0.21
   6   8     0.08  -0.20   0.20     0.02   0.10  -0.12     0.11  -0.19   0.18
   7   7     0.04  -0.00   0.27     0.00  -0.00  -0.04    -0.02   0.00   0.02
   8   6     0.02   0.02  -0.03    -0.00  -0.12   0.10     0.03   0.24  -0.20
   9   7    -0.13   0.08   0.20     0.01  -0.07  -0.04     0.19   0.04  -0.16
  10   6     0.12  -0.00  -0.13    -0.05   0.04  -0.06     0.12  -0.03   0.21
  11   7    -0.08   0.00   0.07    -0.08  -0.04   0.06     0.06   0.13   0.07
  12   7    -0.03  -0.02   0.01    -0.15   0.05   0.02    -0.10  -0.18   0.13
  13   1     0.08   0.11   0.16     0.01  -0.05  -0.06    -0.06   0.05   0.06
  14   1    -0.02  -0.26   0.03    -0.01   0.05  -0.00     0.03  -0.00  -0.01
  15   1    -0.16   0.03   0.00     0.02  -0.01   0.00     0.03   0.00  -0.01
  16   1     0.02   0.03   0.06     0.00  -0.02   0.00    -0.03   0.06  -0.06
  17   1     0.06   0.08   0.03     0.04  -0.02  -0.03    -0.13   0.02   0.07
  18   1    -0.04   0.06   0.22    -0.24   0.23   0.58     0.07  -0.04  -0.08
  19   1    -0.09  -0.07   0.02     0.02   0.01   0.00     0.04   0.02   0.00
  20   1    -0.08  -0.07  -0.02    -0.02  -0.04  -0.02     0.08   0.06   0.10
  21   1     0.13   0.03  -0.05    -0.01  -0.03   0.03    -0.02   0.04  -0.04
  22   1     0.00   0.03   0.11     0.00  -0.04   0.01    -0.01   0.09  -0.09
  23   1     0.07   0.05  -0.06     0.02  -0.04  -0.03     0.09   0.18  -0.03
  24   1     0.04   0.04  -0.09     0.02   0.01   0.01    -0.08  -0.03  -0.03
  25   1    -0.02  -0.01   0.01     0.42  -0.01  -0.46     0.31  -0.17  -0.31
  26   1    -0.08   0.02  -0.18     0.03   0.01   0.05    -0.05  -0.00  -0.09
                     25                     26                     27
                        a                      a                      a 
 Frequencies --   737.1458               874.0906               880.7998
 Red. masses --     5.4547                 8.5824                 5.3540
 Frc consts  --     0.0000                 0.0000                 0.0000
 IR Inten    --   257.2960                16.4898                21.3296
 Raman Activ --     0.0000                 0.0000                 0.0000
 Depolar     --     0.0000                 0.0000                 0.0000
 Atom AN      X      Y      Z        X      Y      Z        X      Y      Z
   1   6     0.01  -0.06  -0.02     0.16  -0.10   0.10    -0.07  -0.16   0.08
   2   6     0.01   0.01  -0.03    -0.30   0.09  -0.02    -0.04   0.13   0.38
   3   6     0.13   0.05  -0.03    -0.20  -0.05   0.06     0.03   0.19   0.02
   4   6     0.07   0.09   0.06     0.37   0.06  -0.07     0.18   0.04  -0.03
   5   8    -0.01  -0.04   0.03    -0.08  -0.06  -0.09    -0.02  -0.02  -0.03
   6   8    -0.02   0.11   0.01    -0.03  -0.15   0.08     0.03  -0.07   0.03
   7   7     0.00  -0.02   0.01    -0.01  -0.01   0.07    -0.06   0.01  -0.17
   8   6    -0.02  -0.14   0.12     0.25   0.01   0.09    -0.10  -0.11  -0.20
   9   7    -0.11  -0.04   0.06     0.12   0.26   0.10    -0.05   0.03   0.07
  10   6     0.16   0.02  -0.28    -0.08   0.04  -0.07    -0.00  -0.01   0.02
  11   7    -0.12  -0.04   0.12    -0.10  -0.17  -0.07    -0.02   0.01  -0.01
  12   7    -0.28   0.11   0.18    -0.05   0.14  -0.07     0.00  -0.03   0.00
  13   1     0.05  -0.02  -0.02     0.09  -0.12  -0.16    -0.10  -0.10  -0.05
  14   1    -0.01  -0.02   0.00    -0.05   0.16   0.01     0.24   0.09  -0.08
  15   1    -0.03   0.01   0.00     0.01   0.02  -0.04     0.41  -0.11  -0.01
  16   1     0.02  -0.01   0.03    -0.10   0.12  -0.12    -0.27   0.02  -0.27
  17   1     0.05  -0.00  -0.03     0.05  -0.13   0.01     0.02   0.04  -0.08
  18   1     0.20  -0.22  -0.55    -0.02  -0.13   0.04    -0.00  -0.05   0.02
  19   1    -0.05  -0.02   0.00     0.04   0.01   0.01     0.01   0.01  -0.06
  20   1    -0.02   0.03  -0.04     0.08   0.05   0.11    -0.00  -0.00  -0.03
  21   1     0.03  -0.01   0.01    -0.15  -0.13   0.13     0.26   0.06  -0.17
  22   1     0.01  -0.05   0.07     0.06  -0.01  -0.24    -0.07   0.08   0.26
  23   1     0.07  -0.03  -0.07    -0.04  -0.12  -0.02    -0.01   0.02   0.00
  24   1     0.07   0.05  -0.05    -0.00  -0.03   0.02     0.02   0.02  -0.02
  25   1     0.30   0.05  -0.33    -0.01   0.15  -0.02     0.00  -0.00  -0.00
  26   1     0.02   0.00   0.00    -0.06   0.01  -0.14    -0.02   0.01  -0.06
                     28                     29                     30
                        a                      a                      a 
 Frequencies --   910.8230               943.2709               988.7986
 Red. masses --     7.6445                 7.2338                 7.2058
 Frc consts  --     0.0000                 0.0000                 0.0000
 IR Inten    --    28.6158                55.9244                54.4426
 Raman Activ --     0.0000                 0.0000                 0.0000
 Depolar     --     0.0000                 0.0000                 0.0000
 Atom AN      X      Y      Z        X      Y      Z        X      Y      Z
   1   6     0.01  -0.48   0.05    -0.04   0.11   0.20     0.20  -0.12   0.12
   2   6     0.30  -0.11  -0.01    -0.28  -0.13   0.13    -0.13   0.14  -0.18
   3   6    -0.03   0.34  -0.04     0.17   0.15  -0.08    -0.06  -0.30  -0.19
   4   6    -0.11  -0.05   0.01    -0.29  -0.06   0.00    -0.02  -0.02  -0.08
   5   8     0.00   0.01  -0.04     0.03   0.04   0.04     0.03   0.03   0.13
   6   8     0.03  -0.13   0.04     0.04  -0.06   0.02    -0.02   0.05  -0.01
   7   7     0.01   0.10  -0.02     0.09   0.10  -0.04     0.22   0.10   0.27
   8   6    -0.11   0.15   0.11     0.41   0.03  -0.19    -0.19   0.03  -0.09
   9   7     0.07   0.18  -0.01    -0.04  -0.05   0.02    -0.13   0.04  -0.07
  10   6    -0.02   0.00   0.01     0.01   0.01  -0.02    -0.00  -0.04   0.02
  11   7    -0.01  -0.05  -0.01     0.01   0.00   0.03     0.07   0.07   0.06
  12   7     0.01   0.01   0.01    -0.00   0.02   0.02     0.03  -0.09   0.04
  13   1    -0.13  -0.26  -0.17    -0.13  -0.03  -0.01     0.08  -0.14  -0.19
  14   1    -0.08   0.10  -0.02    -0.04   0.14   0.04     0.12   0.21  -0.04
  15   1    -0.03   0.02   0.03     0.04  -0.06  -0.00     0.03   0.32  -0.12
  16   1     0.20   0.07   0.09    -0.19  -0.17  -0.03    -0.01   0.04  -0.02
  17   1    -0.10   0.21   0.03     0.05   0.01   0.10     0.07  -0.19   0.11
  18   1     0.03   0.01  -0.02     0.05   0.08  -0.06    -0.00   0.00  -0.02
  19   1    -0.16  -0.14  -0.22    -0.22  -0.14  -0.14    -0.15  -0.08   0.06
  20   1    -0.03  -0.11   0.02    -0.18  -0.20  -0.19    -0.15  -0.16  -0.12
  21   1    -0.13   0.00   0.07    -0.06  -0.05   0.02     0.03   0.17  -0.09
  22   1    -0.12   0.17  -0.07     0.18  -0.11  -0.24    -0.06   0.04   0.14
  23   1     0.00   0.01  -0.00     0.02   0.00  -0.01     0.04   0.12   0.01
  24   1    -0.03  -0.03  -0.01    -0.01  -0.01  -0.00    -0.02  -0.01  -0.03
  25   1     0.01   0.04  -0.01     0.02  -0.02  -0.02     0.01  -0.00   0.01
  26   1    -0.00  -0.00  -0.00     0.03  -0.01   0.08    -0.02  -0.00   0.01
                     31                     32                     33
                        a                      a                      a 
 Frequencies --  1009.7263              1030.7368              1035.1825
 Red. masses --     7.1458                 4.5919                 7.8417
 Frc consts  --     0.0000                 0.0000                 0.0000
 IR Inten    --    25.8561                 9.0280               144.5764
 Raman Activ --     0.0000                 0.0000                 0.0000
 Depolar     --     0.0000                 0.0000                 0.0000
 Atom AN      X      Y      Z        X      Y      Z        X      Y      Z
   1   6    -0.05   0.18   0.09    -0.04   0.09   0.02     0.04  -0.15   0.18
   2   6     0.10  -0.21  -0.05     0.05  -0.06   0.00    -0.09   0.01  -0.13
   3   6    -0.27   0.07  -0.04    -0.05   0.01  -0.01     0.22   0.15  -0.02
   4   6     0.40   0.17   0.14     0.05   0.05   0.08    -0.04   0.22   0.23
   5   8    -0.05  -0.05  -0.12    -0.03  -0.02  -0.07    -0.08   0.01  -0.22
   6   8     0.00   0.03  -0.03     0.01   0.00  -0.01     0.08  -0.12   0.05
   7   7     0.03   0.19   0.10    -0.00   0.04   0.01    -0.13  -0.16  -0.02
   8   6    -0.01  -0.05  -0.12     0.01  -0.16  -0.01     0.04   0.08  -0.15
   9   7    -0.12  -0.18   0.01    -0.01   0.02  -0.05    -0.27  -0.07  -0.08
  10   6     0.03  -0.02  -0.00    -0.04   0.08   0.05    -0.05  -0.07  -0.00
  11   7    -0.03   0.10  -0.01     0.21  -0.30   0.13     0.11   0.15   0.09
  12   7     0.01  -0.05   0.01    -0.09   0.19  -0.13     0.03  -0.13   0.03
  13   1    -0.21   0.03   0.08    -0.00   0.04   0.04    -0.02  -0.14  -0.14
  14   1     0.03   0.04   0.01    -0.03  -0.01   0.02    -0.11   0.16   0.03
  15   1    -0.07   0.10  -0.01    -0.01   0.01   0.00    -0.08   0.06  -0.02
  16   1     0.09  -0.10   0.12     0.01  -0.08   0.05     0.01  -0.04   0.05
  17   1    -0.01  -0.05   0.02    -0.02   0.01  -0.01     0.13  -0.03  -0.18
  18   1    -0.04  -0.12   0.08    -0.02  -0.04   0.03    -0.01  -0.06   0.06
  19   1    -0.20  -0.19  -0.31    -0.04  -0.04  -0.07     0.23   0.14   0.11
  20   1     0.07  -0.11   0.20     0.02  -0.02   0.05     0.16   0.21   0.13
  21   1     0.04   0.07  -0.06     0.08   0.02  -0.04    -0.10   0.18  -0.04
  22   1     0.11  -0.18   0.08     0.04  -0.08   0.08     0.10  -0.12  -0.02
  23   1    -0.03  -0.10   0.00     0.16   0.46  -0.01     0.05   0.11   0.02
  24   1     0.12   0.11   0.04    -0.40  -0.37  -0.19     0.01   0.03   0.00
  25   1    -0.01  -0.09   0.01    -0.04   0.31  -0.02    -0.00  -0.01   0.02
  26   1    -0.03   0.00  -0.09     0.00  -0.00  -0.00     0.10  -0.01   0.17
                     34                     35                     36
                        a                      a                      a 
 Frequencies --  1044.4768              1056.4759              1094.4458
 Red. masses --     7.3159                 8.9327                 5.0452
 Frc consts  --     0.0000                 0.0000                 0.0000
 IR Inten    --    50.3214               119.3465                 5.8679
 Raman Activ --     0.0000                 0.0000                 0.0000
 Depolar     --     0.0000                 0.0000                 0.0000
 Atom AN      X      Y      Z        X      Y      Z        X      Y      Z
   1   6    -0.25  -0.05   0.19    -0.10   0.03   0.02    -0.28  -0.13  -0.01
   2   6     0.09   0.05  -0.09     0.07   0.07  -0.06     0.17   0.28   0.02
   3   6     0.00   0.06  -0.20     0.00  -0.13  -0.12    -0.05  -0.13   0.01
   4   6    -0.02  -0.27  -0.18    -0.19   0.23   0.31     0.13   0.10   0.09
   5   8     0.09   0.00   0.22    -0.14   0.01  -0.30    -0.02  -0.01  -0.03
   6   8    -0.07   0.17  -0.07     0.05  -0.19   0.06     0.01   0.01  -0.01
   7   7    -0.06  -0.07   0.24     0.08   0.01   0.09     0.15  -0.04  -0.02
   8   6     0.18  -0.10  -0.17     0.01  -0.08  -0.01     0.12   0.05  -0.04
   9   7     0.07  -0.00   0.09     0.25   0.04   0.09    -0.09  -0.19   0.01
  10   6     0.00   0.03  -0.01     0.10   0.11   0.05     0.01   0.01   0.00
  11   7    -0.04  -0.05  -0.02    -0.15  -0.19  -0.12     0.03  -0.01   0.03
  12   7    -0.01   0.05  -0.01    -0.03   0.18  -0.03    -0.02   0.05  -0.02
  13   1    -0.27  -0.08   0.02    -0.07   0.02   0.04    -0.38  -0.05   0.11
  14   1    -0.02   0.10   0.01     0.12   0.01  -0.03    -0.20  -0.06   0.04
  15   1     0.04   0.29  -0.08     0.07   0.24  -0.07     0.07   0.02   0.01
  16   1    -0.01  -0.15   0.07    -0.03  -0.14   0.05     0.15   0.43  -0.14
  17   1    -0.09   0.14  -0.11     0.04  -0.07  -0.05    -0.01  -0.03   0.01
  18   1     0.01   0.07  -0.06     0.02   0.04   0.01    -0.02  -0.06   0.03
  19   1     0.17   0.10   0.12    -0.01  -0.00   0.05    -0.01   0.05   0.21
  20   1     0.16   0.17   0.22    -0.01  -0.02  -0.01    -0.18  -0.09  -0.27
  21   1     0.10  -0.08  -0.05     0.15  -0.17  -0.01    -0.06  -0.02   0.03
  22   1     0.02   0.02  -0.03    -0.12   0.17   0.04     0.11  -0.11  -0.09
  23   1    -0.01  -0.04  -0.01    -0.08  -0.18  -0.01     0.02   0.02  -0.00
  24   1    -0.00  -0.01  -0.00    -0.00  -0.03   0.01    -0.03  -0.02  -0.01
  25   1     0.01   0.01  -0.02    -0.01  -0.13  -0.01    -0.02  -0.02   0.00
  26   1    -0.09   0.02  -0.16     0.15  -0.03   0.26     0.00  -0.00  -0.00
                     37                     38                     39
                        a                      a                      a 
 Frequencies --  1115.3558              1123.9583              1147.9024
 Red. masses --     8.4647                 9.2627                 6.1343
 Frc consts  --     0.0000                 0.0000                 0.0000
 IR Inten    --    73.4995                66.0159                 7.2171
 Raman Activ --     0.0000                 0.0000                 0.0000
 Depolar     --     0.0000                 0.0000                 0.0000
 Atom AN      X      Y      Z        X      Y      Z        X      Y      Z
   1   6    -0.14   0.04  -0.04    -0.02  -0.03  -0.02     0.11  -0.08  -0.26
   2   6     0.11   0.01   0.04    -0.04   0.05   0.01    -0.08  -0.01   0.12
   3   6    -0.08  -0.04  -0.06     0.02  -0.03  -0.02     0.05   0.03  -0.20
   4   6    -0.10   0.21  -0.29     0.03  -0.23   0.61    -0.07  -0.07   0.03
   5   8    -0.04   0.06   0.04    -0.00  -0.08  -0.19     0.02   0.01   0.02
   6   8     0.11  -0.17   0.14    -0.06   0.25  -0.17    -0.00   0.03  -0.02
   7   7     0.03   0.04   0.08     0.06  -0.02  -0.04    -0.03   0.07   0.13
   8   6     0.09  -0.20   0.13     0.06   0.06   0.02    -0.02   0.31   0.23
   9   7     0.05   0.18  -0.08     0.09   0.03  -0.02    -0.09  -0.28   0.02
  10   6    -0.15  -0.18  -0.12    -0.12  -0.09  -0.07    -0.03  -0.02  -0.04
  11   7     0.08   0.27   0.07     0.04   0.16   0.02     0.06   0.02   0.05
  12   7    -0.06  -0.30  -0.03    -0.02  -0.19  -0.03    -0.02   0.03  -0.02
  13   1    -0.07   0.04   0.07     0.07   0.00  -0.02    -0.23   0.02   0.13
  14   1     0.02  -0.08  -0.01     0.04  -0.01  -0.02     0.30  -0.11  -0.12
  15   1     0.06   0.08  -0.02     0.04   0.05  -0.02     0.13   0.06  -0.03
  16   1    -0.01  -0.05   0.01    -0.07  -0.12   0.02    -0.06   0.07  -0.09
  17   1    -0.03   0.01  -0.03    -0.08   0.10   0.02     0.24  -0.25  -0.19
  18   1    -0.01  -0.14   0.04    -0.03  -0.07   0.05     0.02   0.07  -0.02
  19   1    -0.02  -0.01   0.00    -0.01   0.01   0.07    -0.01  -0.05  -0.13
  20   1    -0.00  -0.01   0.02    -0.07  -0.06  -0.11     0.13   0.05   0.21
  21   1     0.07  -0.19   0.05     0.02  -0.11   0.04    -0.10  -0.13   0.14
  22   1    -0.00  -0.02  -0.02    -0.05   0.11  -0.04    -0.01   0.06  -0.15
  23   1     0.02   0.07   0.02     0.00   0.02   0.01     0.04   0.09   0.01
  24   1     0.12   0.13   0.06     0.07   0.08   0.05    -0.04  -0.03  -0.01
  25   1    -0.00   0.44  -0.01     0.01   0.34  -0.02    -0.01   0.05   0.00
  26   1     0.10  -0.01   0.21    -0.10   0.01  -0.24    -0.00   0.00   0.00
                     40                     41                     42
                        a                      a                      a 
 Frequencies --  1161.6077              1196.3123              1213.3278
 Red. masses --     6.5571                 4.8407                 7.7151
 Frc consts  --     0.0000                 0.0000                 0.0000
 IR Inten    --     2.9451                16.3306                10.9790
 Raman Activ --     0.0000                 0.0000                 0.0000
 Depolar     --     0.0000                 0.0000                 0.0000
 Atom AN      X      Y      Z        X      Y      Z        X      Y      Z
   1   6    -0.01   0.07   0.14     0.24   0.04   0.01     0.11   0.06  -0.01
   2   6    -0.01   0.06  -0.21    -0.19  -0.20  -0.17    -0.07  -0.10   0.02
   3   6     0.20   0.01   0.44    -0.04   0.20   0.05    -0.03   0.09  -0.19
   4   6    -0.11  -0.14  -0.02     0.09   0.11  -0.09    -0.16  -0.10   0.19
   5   8     0.02  -0.01  -0.02    -0.01  -0.00   0.01     0.02  -0.02  -0.03
   6   8    -0.02   0.05  -0.02     0.05  -0.02   0.03    -0.03  -0.04  -0.02
   7   7    -0.18  -0.04  -0.26     0.03  -0.17  -0.05     0.05  -0.00   0.09
   8   6    -0.02  -0.08  -0.06    -0.11   0.10   0.10    -0.11  -0.24   0.14
   9   7     0.12   0.02   0.07     0.05  -0.14   0.05     0.13   0.48  -0.18
  10   6    -0.02  -0.01  -0.02     0.04   0.00   0.02    -0.02   0.00   0.01
  11   7    -0.01   0.02  -0.01    -0.01  -0.03  -0.01    -0.04  -0.02  -0.04
  12   7    -0.03  -0.05  -0.02    -0.05   0.03  -0.05     0.07  -0.06   0.07
  13   1    -0.22  -0.03   0.04    -0.33  -0.03   0.09    -0.26  -0.01   0.08
  14   1     0.08   0.11  -0.01     0.41   0.09  -0.11     0.09  -0.00  -0.02
  15   1    -0.08   0.16  -0.05    -0.13   0.04  -0.04    -0.06  -0.15   0.04
  16   1     0.15   0.21   0.01     0.00  -0.07   0.05     0.07   0.21  -0.06
  17   1     0.27  -0.30   0.26    -0.20   0.25   0.22     0.10  -0.09  -0.15
  18   1     0.01   0.06  -0.02    -0.02  -0.11   0.03     0.02   0.13  -0.05
  19   1    -0.03  -0.06  -0.21     0.12   0.12   0.24     0.03   0.02   0.06
  20   1     0.06   0.03   0.05    -0.12   0.02  -0.23    -0.00   0.01  -0.00
  21   1     0.12  -0.08  -0.04     0.02  -0.05   0.03     0.02   0.08  -0.02
  22   1    -0.05   0.06   0.07     0.02  -0.04   0.02     0.19  -0.37   0.13
  23   1    -0.01  -0.01   0.00    -0.01   0.01   0.00    -0.02  -0.01   0.00
  24   1     0.02   0.02   0.01    -0.01  -0.01   0.00     0.02   0.01   0.01
  25   1     0.00   0.16  -0.01    -0.02   0.07  -0.00     0.03  -0.08   0.01
  26   1     0.01   0.00  -0.01     0.01   0.00   0.01    -0.05   0.00  -0.11
                     43                     44                     45
                        a                      a                      a 
 Frequencies --  1218.7525              1253.2134              1280.8973
 Red. masses --     6.1708                 5.1972                 5.7953
 Frc consts  --     0.0000                 0.0000                 0.0000
 IR Inten    --    42.7883                31.4787               146.0441
 Raman Activ --     0.0000                 0.0000                 0.0000
 Depolar     --     0.0000                 0.0000                 0.0000
 Atom AN      X      Y      Z        X      Y      Z        X      Y      Z
   1   6     0.14   0.14   0.18     0.00   0.11   0.13     0.03   0.04   0.12
   2   6    -0.03  -0.12  -0.01     0.04  -0.09  -0.07    -0.09   0.02  -0.05
   3   6    -0.10   0.07  -0.22    -0.09   0.13   0.00     0.09  -0.15  -0.06
   4   6    -0.07  -0.04  -0.03    -0.07   0.23   0.04     0.26  -0.33   0.03
   5   8    -0.02   0.01   0.00     0.10  -0.07   0.07    -0.13   0.12  -0.07
   6   8     0.03   0.01   0.01     0.03  -0.11   0.02    -0.09   0.14  -0.04
   7   7     0.08   0.03   0.12     0.06  -0.03   0.01    -0.02   0.06   0.02
   8   6    -0.08   0.04  -0.22     0.13  -0.13   0.03     0.06  -0.05   0.04
   9   7     0.18  -0.23   0.26    -0.22   0.01  -0.16    -0.13   0.08  -0.12
  10   6     0.07   0.03   0.05    -0.14  -0.09  -0.12    -0.13  -0.04  -0.11
  11   7    -0.05  -0.00  -0.04     0.09   0.05   0.07     0.06   0.03   0.05
  12   7    -0.11  -0.06  -0.10     0.08   0.07   0.06     0.08   0.04   0.07
  13   1     0.00  -0.01  -0.03     0.01   0.01   0.00    -0.06  -0.02   0.01
  14   1    -0.11   0.11   0.07     0.04   0.07   0.02     0.10   0.08  -0.01
  15   1    -0.17  -0.37   0.11    -0.10  -0.11   0.04    -0.11  -0.19   0.05
  16   1     0.12   0.25  -0.05     0.08   0.04   0.03     0.05   0.18  -0.06
  17   1     0.07  -0.08  -0.24     0.12  -0.12  -0.11    -0.16   0.19  -0.03
  18   1     0.01   0.02  -0.02    -0.00   0.01   0.01     0.01  -0.03  -0.01
  19   1     0.01   0.02   0.07     0.02   0.03   0.09    -0.04  -0.04  -0.07
  20   1    -0.01  -0.01   0.01    -0.05  -0.01  -0.09     0.05  -0.02   0.10
  21   1     0.07   0.06  -0.09     0.17  -0.32   0.03     0.13  -0.24   0.03
  22   1    -0.13   0.19   0.08    -0.23   0.36  -0.04    -0.08   0.13  -0.01
  23   1    -0.03  -0.08  -0.01     0.04   0.11   0.01     0.03   0.08   0.01
  24   1     0.04   0.03   0.01    -0.03  -0.02  -0.01    -0.02  -0.01  -0.00
  25   1    -0.01   0.34  -0.04     0.00  -0.27   0.03     0.01  -0.20   0.02
  26   1     0.02  -0.01   0.06    -0.16   0.02  -0.35     0.22  -0.02   0.45
                     46                     47                     48
                        a                      a                      a 
 Frequencies --  1310.6815              1320.8034              1330.8491
 Red. masses --     4.4480                 5.1085                 6.0612
 Frc consts  --     0.0000                 0.0000                 0.0000
 IR Inten    --    12.3948                12.9992                17.9421
 Raman Activ --     0.0000                 0.0000                 0.0000
 Depolar     --     0.0000                 0.0000                 0.0000
 Atom AN      X      Y      Z        X      Y      Z        X      Y      Z
   1   6    -0.16  -0.06   0.09    -0.22   0.01   0.08     0.17   0.06  -0.14
   2   6    -0.03   0.02  -0.15     0.04  -0.31   0.10     0.01  -0.13   0.04
   3   6     0.01  -0.13   0.41    -0.13   0.27  -0.10    -0.26   0.29   0.23
   4   6    -0.02   0.02  -0.07     0.09  -0.10   0.01     0.17  -0.27  -0.04
   5   8     0.02  -0.02   0.01    -0.03   0.03  -0.01    -0.06   0.06  -0.04
   6   8    -0.02  -0.03   0.01    -0.03  -0.01  -0.01    -0.05   0.05  -0.02
   7   7     0.11   0.11  -0.05     0.02  -0.08   0.01     0.12  -0.05  -0.04
   8   6    -0.03   0.12  -0.00    -0.11   0.24  -0.05     0.06  -0.14   0.02
   9   7     0.05  -0.03   0.03     0.04  -0.03   0.01    -0.03   0.05   0.01
  10   6     0.00  -0.00  -0.00    -0.04  -0.02  -0.04    -0.06   0.00  -0.04
  11   7    -0.01  -0.01  -0.00     0.01   0.01   0.01     0.02   0.01   0.01
  12   7    -0.01  -0.00  -0.01     0.01   0.00   0.01     0.03  -0.01   0.03
  13   1     0.12  -0.01  -0.04     0.40   0.04  -0.12    -0.13   0.01   0.05
  14   1     0.28   0.07  -0.08     0.03  -0.00  -0.00    -0.22  -0.08   0.06
  15   1    -0.08   0.03  -0.02     0.10   0.23  -0.06     0.05   0.26  -0.06
  16   1     0.03  -0.01   0.04     0.13   0.21  -0.03    -0.07  -0.16   0.03
  17   1    -0.07   0.15  -0.67     0.10  -0.12   0.13     0.16  -0.16  -0.28
  18   1     0.01   0.12  -0.04     0.03   0.12  -0.05     0.02   0.06  -0.04
  19   1    -0.10  -0.04  -0.02     0.07   0.05   0.10     0.01   0.05   0.16
  20   1    -0.06  -0.10  -0.06    -0.04   0.03  -0.09    -0.11  -0.05  -0.18
  21   1     0.03  -0.06   0.01     0.22  -0.30  -0.01    -0.12   0.17  -0.00
  22   1     0.12  -0.16  -0.01     0.17  -0.23  -0.02    -0.12   0.17   0.02
  23   1    -0.00   0.01   0.00     0.01   0.02   0.00     0.01   0.01  -0.00
  24   1     0.00  -0.00   0.00    -0.00  -0.00  -0.00    -0.00  -0.00  -0.00
  25   1    -0.00   0.03  -0.01     0.00  -0.00  -0.00     0.01  -0.03   0.00
  26   1    -0.02   0.00  -0.06     0.05  -0.00   0.10     0.11  -0.01   0.22
                     49                     50                     51
                        a                      a                      a 
 Frequencies --  1338.3764              1345.6823              1366.6533
 Red. masses --     4.3717                 5.0103                 3.6633
 Frc consts  --     0.0000                 0.0000                 0.0000
 IR Inten    --    18.8655                 1.6450               332.1058
 Raman Activ --     0.0000                 0.0000                 0.0000
 Depolar     --     0.0000                 0.0000                 0.0000
 Atom AN      X      Y      Z        X      Y      Z        X      Y      Z
   1   6     0.27  -0.09   0.01     0.30   0.09  -0.09    -0.00  -0.03   0.03
   2   6     0.06   0.29  -0.05    -0.22  -0.27   0.14     0.02   0.03  -0.01
   3   6    -0.09  -0.02   0.05     0.23  -0.13   0.07    -0.03   0.08   0.04
   4   6     0.05   0.01  -0.03    -0.09   0.11   0.01    -0.24  -0.18  -0.07
   5   8    -0.00  -0.00   0.01     0.03  -0.03   0.01     0.02   0.03   0.01
   6   8    -0.03  -0.04   0.01     0.02  -0.01   0.01     0.14   0.21  -0.02
   7   7     0.01  -0.00  -0.02    -0.03   0.05  -0.01     0.03   0.00   0.01
   8   6    -0.23   0.24  -0.03    -0.12   0.02  -0.02    -0.06   0.06   0.02
   9   7     0.05  -0.03  -0.00    -0.01  -0.01  -0.03    -0.02   0.05  -0.06
  10   6    -0.04  -0.03  -0.04     0.02   0.01   0.01     0.11   0.07   0.08
  11   7     0.01   0.01   0.01     0.00   0.01   0.00    -0.03  -0.04  -0.02
  12   7     0.00   0.00   0.01    -0.01  -0.01  -0.01    -0.00   0.06  -0.02
  13   1    -0.19  -0.10  -0.03    -0.10   0.01   0.03     0.03  -0.02  -0.03
  14   1    -0.32  -0.02   0.10    -0.40  -0.04   0.12    -0.01  -0.00   0.01
  15   1    -0.03  -0.20   0.05     0.13   0.36  -0.10    -0.00  -0.03   0.01
  16   1    -0.14  -0.35   0.11     0.01   0.26  -0.13    -0.00  -0.04   0.03
  17   1     0.04  -0.08   0.02    -0.18   0.27  -0.16     0.12  -0.12  -0.13
  18   1     0.02   0.16  -0.06    -0.01  -0.06   0.03    -0.09  -0.78   0.26
  19   1    -0.02   0.00   0.03    -0.02  -0.03  -0.09    -0.01  -0.00   0.00
  20   1    -0.01  -0.02  -0.01     0.03   0.01   0.05    -0.02  -0.00  -0.03
  21   1     0.28  -0.40  -0.00     0.15  -0.15  -0.03     0.12  -0.11  -0.01
  22   1     0.12  -0.20   0.07    -0.04   0.02   0.03     0.05  -0.09  -0.04
  23   1     0.01   0.02   0.00     0.00  -0.03  -0.01    -0.00  -0.08  -0.02
  24   1     0.01   0.01  -0.01    -0.00  -0.00  -0.01    -0.03  -0.03  -0.04
  25   1     0.00   0.00  -0.00    -0.01   0.00   0.00    -0.02  -0.10   0.02
  26   1     0.01   0.00   0.01    -0.05   0.01  -0.11    -0.00  -0.01   0.03
                     52                     53                     54
                        a                      a                      a 
 Frequencies --  1429.0532              1461.1971              1466.6003
 Red. masses --     8.1942                 2.0060                 2.4949
 Frc consts  --     0.0000                 0.0000                 0.0000
 IR Inten    --   232.2750                 2.0793                15.7993
 Raman Activ --     0.0000                 0.0000                 0.0000
 Depolar     --     0.0000                 0.0000                 0.0000
 Atom AN      X      Y      Z        X      Y      Z        X      Y      Z
   1   6     0.01   0.02  -0.02     0.01  -0.24  -0.12     0.00  -0.11  -0.04
   2   6     0.01  -0.02   0.02    -0.11   0.01  -0.04     0.21  -0.04   0.07
   3   6     0.01  -0.02  -0.01    -0.02   0.01  -0.01     0.01   0.01  -0.01
   4   6    -0.10   0.02  -0.01    -0.00  -0.01  -0.01    -0.00  -0.01   0.00
   5   8    -0.01  -0.01  -0.01    -0.00   0.00   0.00     0.00   0.00   0.01
   6   8     0.02   0.03  -0.00     0.00   0.00   0.00     0.00   0.00  -0.00
   7   7     0.00   0.01   0.01     0.01   0.00  -0.00    -0.00  -0.01   0.02
   8   6    -0.02   0.05  -0.14    -0.01  -0.01  -0.02     0.07   0.04  -0.10
   9   7     0.35  -0.03   0.27     0.03   0.01   0.02    -0.09   0.02  -0.09
  10   6    -0.31  -0.33  -0.28    -0.04  -0.02  -0.03     0.11   0.10   0.08
  11   7     0.03  -0.03   0.01     0.01   0.02   0.01    -0.03  -0.03  -0.02
  12   7     0.01   0.27  -0.01     0.01   0.01   0.01    -0.01  -0.06  -0.00
  13   1    -0.00  -0.00  -0.02     0.12   0.30   0.52     0.06   0.11   0.19
  14   1    -0.03  -0.03   0.01    -0.14   0.58  -0.10    -0.03   0.23  -0.04
  15   1    -0.03   0.04   0.01     0.27  -0.10  -0.07    -0.46   0.17   0.13
  16   1    -0.03   0.01  -0.05     0.16  -0.01   0.24    -0.28  -0.03  -0.41
  17   1    -0.01   0.01   0.00     0.00  -0.01  -0.00     0.02  -0.02   0.01
  18   1     0.00  -0.14   0.05     0.00  -0.01   0.00    -0.00   0.00   0.00
  19   1    -0.01  -0.01  -0.01    -0.01   0.00   0.02     0.03  -0.00  -0.04
  20   1     0.00  -0.00   0.01     0.00  -0.01   0.01    -0.01   0.03  -0.03
  21   1    -0.22   0.04   0.05    -0.02  -0.01   0.00    -0.24  -0.23   0.14
  22   1     0.05  -0.05   0.23     0.00  -0.01   0.04     0.03   0.01   0.35
  23   1    -0.01   0.37   0.07     0.01  -0.01  -0.01    -0.01  -0.03  -0.00
  24   1     0.16   0.10   0.17     0.00   0.00  -0.02     0.00  -0.00  -0.02
  25   1    -0.01  -0.22  -0.02     0.00  -0.02  -0.00     0.00   0.05   0.00
  26   1    -0.01  -0.00  -0.01     0.00   0.00   0.01    -0.00   0.00  -0.00
                     55                     56                     57
                        a                      a                      a 
 Frequencies --  1481.6056              1501.1721              1550.2150
 Red. masses --     3.2080                 4.1231                 2.1186
 Frc consts  --     0.0000                 0.0000                 0.0000
 IR Inten    --    59.9042               191.4724                42.8514
 Raman Activ --     0.0000                 0.0000                 0.0000
 Depolar     --     0.0000                 0.0000                 0.0000
 Atom AN      X      Y      Z        X      Y      Z        X      Y      Z
   1   6    -0.00   0.08   0.01    -0.00   0.03   0.00    -0.00  -0.00   0.00
   2   6    -0.15   0.01  -0.04    -0.02  -0.00  -0.01     0.01  -0.03   0.01
   3   6    -0.00   0.01   0.01    -0.00  -0.01  -0.01     0.05   0.06  -0.01
   4   6     0.01  -0.02  -0.02    -0.02   0.03  -0.00    -0.02   0.01  -0.01
   5   8     0.01   0.01   0.01    -0.00  -0.01  -0.00     0.01  -0.00   0.00
   6   8     0.00   0.00   0.00    -0.00  -0.01   0.00     0.01  -0.00   0.01
   7   7     0.00  -0.00  -0.01     0.00   0.00   0.00     0.01   0.05  -0.27
   8   6     0.13   0.04  -0.14     0.02   0.03  -0.08     0.00   0.00  -0.00
   9   7    -0.14   0.03  -0.12     0.15  -0.01   0.11    -0.01   0.00  -0.01
  10   6     0.18   0.12   0.13    -0.25  -0.04  -0.16     0.02  -0.01   0.02
  11   7    -0.06  -0.10  -0.07     0.13   0.27   0.16    -0.00  -0.00  -0.00
  12   7    -0.02  -0.05  -0.01     0.05  -0.03   0.04    -0.01   0.01  -0.00
  13   1    -0.03  -0.07  -0.14    -0.01  -0.03  -0.06     0.01   0.00   0.00
  14   1     0.03  -0.16   0.03     0.04  -0.07   0.00     0.00   0.01  -0.00
  15   1     0.31  -0.10  -0.09     0.05  -0.02  -0.01    -0.04   0.04   0.00
  16   1     0.19   0.03   0.27     0.03   0.01   0.04    -0.02   0.01  -0.05
  17   1     0.00   0.00  -0.02    -0.01   0.01   0.01     0.02   0.00   0.05
  18   1    -0.01   0.01  -0.00     0.02  -0.03   0.01    -0.00  -0.01  -0.01
  19   1    -0.01   0.00   0.02    -0.01  -0.00   0.00    -0.37   0.08   0.57
  20   1     0.01  -0.01   0.01     0.00  -0.01   0.01     0.19  -0.43   0.46
  21   1    -0.37  -0.30   0.20    -0.18  -0.05   0.07    -0.00  -0.01   0.00
  22   1     0.02   0.05   0.48     0.03  -0.01   0.24     0.00  -0.00   0.00
  23   1    -0.05   0.09   0.03     0.13  -0.50  -0.14    -0.00  -0.00  -0.00
  24   1     0.08   0.04   0.08    -0.34  -0.18  -0.44     0.00   0.00  -0.00
  25   1    -0.00   0.07   0.00     0.01  -0.07   0.01    -0.00   0.00  -0.00
  26   1     0.00   0.00   0.01    -0.00   0.00  -0.01    -0.00   0.00  -0.01
                     58                     59                     60
                        a                      a                      a 
 Frequencies --  1658.3024              2678.6310              2836.3451
 Red. masses --    11.9846                 1.9998                 1.7217
 Frc consts  --     0.0000                 0.0000                 0.0000
 IR Inten    --   445.4568               923.8547                94.3908
 Raman Activ --     0.0000                 0.0000                 0.0000
 Depolar     --     0.0000                 0.0000                 0.0000
 Atom AN      X      Y      Z        X      Y      Z        X      Y      Z
   1   6    -0.00   0.00  -0.00    -0.00   0.00   0.00     0.00   0.00   0.00
   2   6     0.00   0.00   0.00    -0.00   0.00   0.00    -0.00  -0.01   0.00
   3   6    -0.00  -0.01  -0.01     0.00   0.01  -0.00    -0.20  -0.16  -0.01
   4   6    -0.02   0.07  -0.02     0.00  -0.04   0.02    -0.01  -0.01   0.00
   5   8    -0.00  -0.01  -0.00    -0.00   0.01  -0.01     0.00   0.00   0.00
   6   8    -0.01  -0.02  -0.00     0.23   0.02   0.09     0.00   0.00   0.00
   7   7     0.00   0.00  -0.00     0.00   0.00   0.00    -0.01  -0.01  -0.02
   8   6    -0.01   0.02   0.00     0.00   0.00   0.00     0.00   0.00  -0.00
   9   7     0.11  -0.09   0.12     0.02   0.00   0.02     0.00   0.00   0.00
  10   6    -0.26   0.69  -0.30    -0.04   0.04  -0.03     0.00  -0.00  -0.00
  11   7    -0.01  -0.15  -0.02     0.00  -0.01   0.00    -0.00   0.00   0.00
  12   7     0.16  -0.43   0.18     0.00  -0.03   0.00     0.00   0.00   0.00
  13   1    -0.00  -0.00  -0.00     0.00  -0.00   0.00    -0.00  -0.00   0.00
  14   1     0.00  -0.01  -0.00    -0.00  -0.00  -0.00    -0.00   0.00  -0.01
  15   1     0.00  -0.00   0.00     0.00   0.00   0.00    -0.00  -0.01  -0.02
  16   1    -0.00  -0.00  -0.00     0.00  -0.00  -0.00    -0.01   0.01   0.01
  17   1    -0.01   0.01   0.01    -0.01  -0.01  -0.00     0.75   0.61   0.08
  18   1     0.06  -0.08   0.03    -0.89   0.03  -0.36    -0.01  -0.00  -0.00
  19   1    -0.02  -0.00   0.02    -0.00  -0.00  -0.01     0.00   0.00  -0.00
  20   1     0.00  -0.01   0.01     0.00  -0.00  -0.00    -0.00   0.01   0.00
  21   1     0.00   0.02  -0.00    -0.00  -0.00  -0.00     0.00   0.00   0.00
  22   1     0.01  -0.01  -0.01    -0.01  -0.00  -0.00    -0.00  -0.00   0.00
  23   1    -0.02   0.16   0.02    -0.00   0.01  -0.00     0.00   0.00  -0.00
  24   1    -0.00  -0.03   0.06    -0.00  -0.00  -0.00     0.00   0.00  -0.00
  25   1     0.06  -0.09   0.04    -0.00  -0.03   0.02     0.00  -0.00  -0.00
  26   1    -0.01   0.00  -0.02    -0.00  -0.00   0.01    -0.00  -0.00   0.00
                     61                     62                     63
                        a                      a                      a 
 Frequencies --  2957.4142              2970.3196              2982.9349
 Red. masses --     1.7818                 1.7862                 1.9708
 Frc consts  --     0.0000                 0.0000                 0.0000
 IR Inten    --     6.6457                47.3206                32.1601
 Raman Activ --     0.0000                 0.0000                 0.0000
 Depolar     --     0.0000                 0.0000                 0.0000
 Atom AN      X      Y      Z        X      Y      Z        X      Y      Z
   1   6    -0.02   0.01  -0.05     0.01   0.02   0.03     0.08  -0.11   0.25
   2   6     0.01  -0.01  -0.01     0.18  -0.11  -0.16    -0.03  -0.00  -0.03
   3   6    -0.00  -0.00   0.00     0.01  -0.00  -0.00    -0.00   0.00  -0.00
   4   6     0.00  -0.00   0.00    -0.00   0.00   0.00     0.00   0.00   0.00
   5   8     0.00   0.00  -0.00    -0.00   0.00   0.00     0.00   0.00  -0.00
   6   8    -0.00   0.00  -0.00     0.00  -0.00   0.00    -0.00   0.00  -0.00
   7   7    -0.00   0.00  -0.00    -0.00   0.00   0.00    -0.00  -0.00  -0.00
   8   6     0.11   0.08   0.22    -0.00   0.00   0.00     0.05   0.03   0.04
   9   7     0.01  -0.01   0.01     0.00  -0.00   0.00     0.00   0.00  -0.00
  10   6    -0.00   0.00   0.00    -0.00   0.00  -0.00    -0.00   0.00   0.00
  11   7    -0.00  -0.00  -0.00     0.00   0.00   0.00     0.00  -0.00   0.00
  12   7    -0.00  -0.00  -0.00     0.00  -0.00   0.00     0.00  -0.00   0.00
  13   1     0.01  -0.06   0.02     0.02  -0.06   0.04    -0.13   0.55  -0.29
  14   1     0.05   0.04   0.19    -0.05  -0.03  -0.18    -0.16  -0.14  -0.59
  15   1     0.00   0.00   0.01     0.06   0.01   0.09     0.06   0.04   0.20
  16   1    -0.03   0.02   0.02    -0.69   0.40   0.49     0.07  -0.04  -0.06
  17   1     0.00   0.00  -0.00    -0.01  -0.01  -0.00     0.00   0.00   0.00
  18   1     0.00   0.00   0.00    -0.00   0.00  -0.00     0.00   0.00   0.00
  19   1     0.00  -0.00   0.00     0.00  -0.00   0.00     0.00  -0.00  -0.00
  20   1    -0.00   0.00   0.00     0.00  -0.00   0.00    -0.00   0.00  -0.00
  21   1    -0.29  -0.21  -0.86    -0.00   0.00   0.00    -0.05  -0.03  -0.15
  22   1    -0.10  -0.06   0.04     0.00   0.00  -0.00    -0.14  -0.09   0.01
  23   1     0.00  -0.00   0.00    -0.00  -0.00  -0.00    -0.00  -0.00  -0.00
  24   1    -0.00   0.00  -0.00    -0.00  -0.00  -0.00    -0.00  -0.00  -0.00
  25   1     0.00   0.00   0.00    -0.00   0.00  -0.00    -0.00   0.00  -0.00
  26   1     0.00  -0.00  -0.00     0.00  -0.00   0.00    -0.00   0.00   0.00
                     64                     65                     66
                        a                      a                      a 
 Frequencies --  2989.3095              2993.9778              3007.4907
 Red. masses --     1.5158                 1.6382                 1.7264
 Frc consts  --     0.0000                 0.0000                 0.0000
 IR Inten    --    29.4757                56.2591                38.3425
 Raman Activ --     0.0000                 0.0000                 0.0000
 Depolar     --     0.0000                 0.0000                 0.0000
 Atom AN      X      Y      Z        X      Y      Z        X      Y      Z
   1   6    -0.01  -0.14  -0.08     0.00  -0.13  -0.01    -0.02   0.01  -0.07
   2   6     0.03  -0.02  -0.01     0.02  -0.01  -0.00    -0.09  -0.03  -0.22
   3   6     0.00  -0.00  -0.00    -0.00  -0.00  -0.00    -0.01  -0.00  -0.01
   4   6    -0.00  -0.00  -0.00     0.00   0.00   0.00    -0.00  -0.00  -0.00
   5   8    -0.00  -0.00   0.00     0.00   0.00   0.00     0.00  -0.00   0.00
   6   8     0.00   0.00   0.00     0.00  -0.00   0.00     0.00  -0.00   0.00
   7   7    -0.00   0.00  -0.00    -0.00   0.00  -0.00     0.00   0.00   0.00
   8   6     0.11   0.06  -0.05    -0.16  -0.11   0.03    -0.01  -0.01  -0.01
   9   7     0.00   0.01  -0.00    -0.00  -0.01   0.00    -0.00   0.00  -0.00
  10   6    -0.00   0.00  -0.00    -0.00  -0.00  -0.00    -0.00  -0.00  -0.00
  11   7     0.00  -0.00   0.00    -0.00   0.00  -0.00    -0.00   0.00   0.00
  12   7     0.00  -0.00   0.00     0.00   0.00  -0.00     0.00   0.00   0.00
  13   1    -0.11   0.43  -0.27    -0.11   0.41  -0.24     0.01  -0.07   0.03
  14   1     0.15   0.09   0.55     0.08   0.04   0.27     0.05   0.04   0.20
  15   1    -0.01  -0.01  -0.06    -0.01  -0.01  -0.05     0.27   0.16   0.88
  16   1    -0.12   0.07   0.09    -0.07   0.04   0.05     0.05  -0.04  -0.07
  17   1    -0.00  -0.00  -0.00     0.00   0.00   0.00     0.01   0.01   0.00
  18   1    -0.00   0.00  -0.00    -0.01   0.00  -0.00    -0.00  -0.00  -0.00
  19   1     0.00  -0.00   0.00     0.00  -0.00   0.00    -0.00  -0.00  -0.00
  20   1     0.00  -0.00   0.00     0.00  -0.00  -0.00     0.00  -0.00  -0.00
  21   1     0.07   0.05   0.15    -0.05  -0.03  -0.07     0.01   0.01   0.05
  22   1    -0.45  -0.30   0.02     0.64   0.43  -0.03     0.04   0.02  -0.00
  23   1     0.00  -0.00  -0.00     0.00   0.00   0.00     0.00   0.00   0.00
  24   1    -0.00   0.00   0.00     0.00   0.00   0.00     0.00   0.00   0.00
  25   1    -0.00  -0.00  -0.00    -0.00   0.00   0.00     0.00  -0.00  -0.00
  26   1     0.00  -0.00  -0.00     0.00  -0.00   0.00    -0.00   0.00   0.00
                     67                     68                     69
                        a                      a                      a 
 Frequencies --  3380.7735              3409.5967              3413.5813
 Red. masses --     1.5179                 2.0689                 1.8725
 Frc consts  --     0.0000                 0.0000                 0.0000
 IR Inten    --     8.6755                 3.7170                14.4017
 Raman Activ --     0.0000                 0.0000                 0.0000
 Depolar     --     0.0000                 0.0000                 0.0000
 Atom AN      X      Y      Z        X      Y      Z        X      Y      Z
   1   6    -0.00   0.00  -0.00     0.00  -0.00  -0.00    -0.00   0.00  -0.00
   2   6    -0.00  -0.00  -0.00     0.00  -0.00  -0.00    -0.00   0.00   0.00
   3   6     0.00   0.01  -0.00     0.01  -0.00   0.00    -0.00   0.00   0.00
   4   6    -0.00   0.00   0.00    -0.00   0.00   0.00    -0.00   0.00  -0.00
   5   8    -0.00   0.00  -0.00    -0.00   0.00  -0.00     0.00  -0.00  -0.00
   6   8     0.00   0.00   0.00     0.00   0.00   0.00     0.00   0.00   0.00
   7   7     0.04   0.12  -0.15     0.21  -0.18  -0.06    -0.03   0.02   0.01
   8   6     0.00  -0.00  -0.00     0.00  -0.00   0.00     0.00   0.00   0.00
   9   7    -0.00   0.00   0.00    -0.00  -0.00  -0.00    -0.00  -0.00  -0.00
  10   6    -0.00  -0.00  -0.00     0.00   0.00   0.00     0.01   0.02   0.01
  11   7    -0.00   0.00   0.00    -0.00  -0.00  -0.00    -0.00   0.00  -0.00
  12   7    -0.00   0.00  -0.00     0.02  -0.00   0.02     0.18  -0.01   0.18
  13   1     0.00  -0.00   0.00    -0.00   0.00  -0.00     0.00  -0.00   0.00
  14   1    -0.00   0.00  -0.00     0.00   0.00   0.00    -0.00   0.00   0.00
  15   1     0.00   0.00   0.00     0.00  -0.00   0.00    -0.00   0.00  -0.00
  16   1     0.00  -0.00  -0.00    -0.00   0.00   0.00     0.00  -0.00  -0.00
  17   1    -0.00  -0.00   0.00    -0.00  -0.00   0.00     0.00   0.00  -0.00
  18   1    -0.00  -0.00  -0.00    -0.00   0.00  -0.00    -0.01  -0.01  -0.00
  19   1     0.33  -0.66   0.26    -0.20   0.49  -0.22     0.03  -0.06   0.03
  20   1    -0.47   0.19   0.32    -0.60   0.19   0.43     0.07  -0.02  -0.05
  21   1     0.00   0.00   0.00    -0.00   0.00  -0.00     0.00  -0.00  -0.00
  22   1     0.00   0.00   0.00    -0.00   0.00   0.00    -0.00   0.00  -0.00
  23   1    -0.00   0.00  -0.00     0.00  -0.00   0.00     0.00  -0.00   0.00
  24   1     0.00  -0.00  -0.00    -0.00   0.00   0.00     0.01  -0.02  -0.00
  25   1     0.00  -0.00   0.00    -0.08   0.00  -0.08    -0.68   0.01  -0.67
  26   1     0.00  -0.00   0.00     0.00  -0.00  -0.00    -0.00   0.00   0.00
                     70                     71                     72
                        a                      a                      a 
 Frequencies --  3461.6782              3515.1092              3525.0566
 Red. masses --     1.4799                 2.1315                 1.8652
 Frc consts  --     0.0000                 0.0000                 0.0000
 IR Inten    --     2.9555                 2.8781                29.9115
 Raman Activ --     0.0000                 0.0000                 0.0000
 Depolar     --     0.0000                 0.0000                 0.0000
 Atom AN      X      Y      Z        X      Y      Z        X      Y      Z
   1   6     0.00   0.00   0.00    -0.00  -0.00  -0.00     0.00   0.00   0.00
   2   6    -0.00   0.00  -0.00     0.00  -0.00   0.00     0.00   0.00   0.00
   3   6    -0.00   0.00  -0.00     0.00  -0.00   0.00    -0.00   0.00  -0.00
   4   6    -0.00  -0.00  -0.00     0.00   0.00   0.00     0.00  -0.00  -0.01
   5   8    -0.00   0.00   0.00    -0.00   0.00   0.00     0.12  -0.19  -0.08
   6   8     0.00  -0.00   0.00     0.00  -0.00   0.00    -0.00   0.00  -0.00
   7   7    -0.00   0.00   0.00     0.00  -0.00   0.00     0.00  -0.00  -0.00
   8   6     0.00   0.00   0.00     0.00   0.00  -0.00     0.00  -0.00   0.00
   9   7     0.00   0.00   0.00     0.00  -0.00   0.00     0.00   0.00   0.00
  10   6    -0.00  -0.00  -0.01    -0.01   0.01  -0.00    -0.00   0.00  -0.00
  11   7    -0.05  -0.11  -0.15    -0.21   0.18  -0.11    -0.00   0.00  -0.00
  12   7     0.00   0.00   0.00    -0.00  -0.00  -0.00    -0.00  -0.00  -0.00
  13   1     0.00  -0.00   0.00    -0.00   0.00  -0.00    -0.00   0.00  -0.00
  14   1     0.00  -0.00  -0.00    -0.00  -0.00   0.00    -0.00   0.00   0.00
  15   1    -0.00  -0.00   0.00     0.00   0.00   0.00    -0.00  -0.00  -0.00
  16   1     0.00  -0.00  -0.00    -0.00   0.00   0.00    -0.00   0.00   0.00
  17   1     0.00   0.00   0.00    -0.00  -0.00   0.00    -0.00  -0.00  -0.00
  18   1    -0.00  -0.00  -0.00    -0.00  -0.00  -0.00     0.00   0.00  -0.00
  19   1     0.00  -0.00   0.00    -0.00   0.00  -0.00    -0.00   0.00  -0.00
  20   1     0.00  -0.00  -0.00    -0.00   0.00   0.00    -0.00   0.00   0.00
  21   1     0.00   0.00   0.00    -0.00  -0.00   0.00    -0.00  -0.00  -0.00
  22   1    -0.00   0.00   0.00    -0.00  -0.00   0.00     0.00   0.00  -0.00
  23   1     0.52  -0.08   0.58     0.37  -0.04   0.44     0.00  -0.00   0.00
  24   1    -0.34   0.49  -0.01     0.42  -0.64  -0.03     0.00  -0.01  -0.00
  25   1    -0.00  -0.00  -0.01     0.01  -0.00   0.01     0.00   0.00   0.00
  26   1     0.00  -0.00  -0.00     0.00  -0.01  -0.00    -0.48   0.77   0.34
