      -----------------------------------------------------------      
     |                   =====================                   |     
     |                           x T B                           |     
     |                   =====================                   |     
     |                         S. Grimme                         |     
     |          Mulliken Center for Theoretical Chemistry        |     
     |                    University of Bonn                     |     
      -----------------------------------------------------------      

   * xtb version 6.6.0 (8843059) compiled by 'stahn@majestix' on 2023-02-09

   xtb is free software: you can redistribute it and/or modify it under
   the terms of the GNU Lesser General Public License as published by
   the Free Software Foundation, either version 3 of the License, or
   (at your option) any later version.
   
   xtb is distributed in the hope that it will be useful,
   but WITHOUT ANY WARRANTY; without even the implied warranty of
   MERCHANTABILITY or FITNESS FOR A PARTICULAR PURPOSE.  See the
   GNU Lesser General Public License for more details.
   
   Cite this work as:
   * C. Bannwarth, E. Caldeweyher, S. Ehlert, A. Hansen, P. Pracht,
     J. Seibert, S. Spicher, S. Grimme, WIREs Comput. Mol. Sci., 2020, 11,
     e01493. DOI: 10.1002/wcms.1493
   
   for GFN2-xTB:
   * C. Bannwarth, S. Ehlert and S. Grimme., J. Chem. Theory Comput., 2019,
     15, 1652-1671. DOI: 10.1021/acs.jctc.8b01176
   for GFN1-xTB:
   * S. Grimme, C. Bannwarth, P. Shushkov, J. Chem. Theory Comput., 2017,
     13, 1989-2009. DOI: 10.1021/acs.jctc.7b00118
   for GFN0-xTB:
   * P. Pracht, E. Caldeweyher, S. Ehlert, S. Grimme, ChemRxiv, 2019, preprint.
     DOI: 10.26434/chemrxiv.8326202.v1
   for GFN-FF:
   * S. Spicher and S. Grimme, Angew. Chem. Int. Ed., 2020, 59, 15665-15673.
     DOI: 10.1002/anie.202004239
   
   for ALPB and GBSA implicit solvation:
   * S. Ehlert, M. Stahn, S. Spicher, S. Grimme, J. Chem. Theory Comput.,
     2021, 17, 4250-4261. DOI: 10.1021/acs.jctc.1c00471
   
   for DFT-D4:
   * E. Caldeweyher, C. Bannwarth and S. Grimme, J. Chem. Phys., 2017,
     147, 034112. DOI: 10.1063/1.4993215
   * E. Caldeweyher, S. Ehlert, A. Hansen, H. Neugebauer, S. Spicher,
     C. Bannwarth and S. Grimme, J. Chem. Phys., 2019, 150, 154122.
     DOI: 10.1063/1.5090222
   * E. Caldeweyher, J.-M. Mewes, S. Ehlert and S. Grimme, Phys. Chem. Chem. Phys.
     2020, 22, 8499-8512. DOI: 10.1039/D0CP00502A
   
   for sTDA-xTB:
   * S. Grimme and C. Bannwarth, J. Chem. Phys., 2016, 145, 054103.
     DOI: 10.1063/1.4959605
   
   in the mass-spec context:
   * V. Asgeirsson, C. Bauer and S. Grimme, Chem. Sci., 2017, 8, 4879.
     DOI: 10.1039/c7sc00601b
   * J. Koopman and S. Grimme, ACS Omega 2019, 4, 12, 15120-15133.
     DOI: 10.1021/acsomega.9b02011
   
   for metadynamics refer to:
   * S. Grimme, J. Chem. Theory Comput., 2019, 155, 2847-2862
     DOI: 10.1021/acs.jctc.9b00143
   
   for SPH calculations refer to:
   * S. Spicher and S. Grimme, J. Chem. Theory Comput., 2021, 17, 1701-1714
     DOI: 10.1021/acs.jctc.0c01306
   
   with help from (in alphabetical order)
   P. Atkinson, C. Bannwarth, F. Bohle, G. Brandenburg, E. Caldeweyher
   M. Checinski, S. Dohm, S. Ehlert, S. Ehrlich, I. Gerasimov, C. Hölzer
   A. Katbashev, J. Koopman, C. Lavigne, S. Lehtola, F. März, M. Müller,
   F. Musil, H. Neugebauer, J. Pisarek, C. Plett, P. Pracht, F. Pultar,
   J. Seibert, P. Shushkov, S. Spicher, M. Stahn, M. Steiner, T. Strunk,
   J. Stückrath, T. Rose, and J. Unsleber
   
 * started run on 2025/07/30 at 12:34:52.976     

           -------------------------------------------------
          |                Calculation Setup                |
           -------------------------------------------------

          program call               : xtb --gfn2 in.xyz --ohess vtight
          coordinate file            : in.xyz
          omp threads                :                     8

   ID    Z sym.   atoms
    1    6 C      1-4, 8, 10
    2    8 O      5, 6
    3    7 N      7, 9, 11, 12
    4    1 H      13-26

           -------------------------------------------------
          |                 G F N 2 - x T B                 |
           -------------------------------------------------

        Reference                      10.1021/acs.jctc.8b01176
      * Hamiltonian:
        H0-scaling (s, p, d)           1.850000    2.230000    2.230000
        zeta-weighting                 0.500000
      * Dispersion:
        s8                             2.700000
        a1                             0.520000
        a2                             5.000000
        s9                             5.000000
      * Repulsion:
        kExp                           1.500000    1.000000
        rExp                           1.000000
      * Coulomb:
        alpha                          2.000000
        third order                    shell-resolved
        anisotropic                    true
        a3                             3.000000
        a5                             4.000000
        cn-shift                       1.200000
        cn-exp                         4.000000
        max-rad                        5.000000


          ...................................................
          :                      SETUP                      :
          :.................................................:
          :  # basis functions                  62          :
          :  # atomic orbitals                  62          :
          :  # shells                           38          :
          :  # electrons                        70          :
          :  max. iterations                   250          :
          :  Hamiltonian                  GFN2-xTB          :
          :  restarted?                      false          :
          :  GBSA solvation                  false          :
          :  PC potential                    false          :
          :  electronic temp.          300.0000000     K    :
          :  accuracy                    1.0000000          :
          :  -> integral cutoff          0.2500000E+02      :
          :  -> integral neglect         0.1000000E-07      :
          :  -> SCF convergence          0.1000000E-05 Eh   :
          :  -> wf. convergence          0.1000000E-03 e    :
          :  Broyden damping             0.4000000          :
          ...................................................

 iter      E             dE          RMSdq      gap      omega  full diag
   1    -40.1966045 -0.401966E+02  0.361E+00    4.91       0.0  T
   2    -40.2420075 -0.454030E-01  0.203E+00    5.10       1.0  T
   3    -40.2438880 -0.188046E-02  0.750E-01    4.79       1.0  T
   4    -40.2452443 -0.135633E-02  0.195E-01    4.91       1.0  T
   5    -40.2455070 -0.262688E-03  0.711E-02    4.88       1.0  T
   6    -40.2455401 -0.331417E-04  0.347E-02    4.89       1.0  T
   7    -40.2455415 -0.134529E-05  0.873E-03    4.89       2.2  T
   8    -40.2455422 -0.751796E-06  0.300E-03    4.89       6.5  T
   9    -40.2455423 -0.402278E-07  0.129E-03    4.89      15.2  T
  10    -40.2455423 -0.151485E-08  0.390E-04    4.89      50.3  T
  11    -40.2455423 -0.442256E-09  0.899E-05    4.89     218.2  T

   *** convergence criteria satisfied after 11 iterations ***

         #    Occupation            Energy/Eh            Energy/eV
      -------------------------------------------------------------
         1        2.0000           -0.6977172             -18.9859
       ...           ...                  ...                  ...
        29        2.0000           -0.4355394             -11.8516
        30        2.0000           -0.4324077             -11.7664
        31        2.0000           -0.4124646             -11.2237
        32        2.0000           -0.3961779             -10.7805
        33        2.0000           -0.3762169             -10.2374
        34        2.0000           -0.3709554             -10.0942
        35        2.0000           -0.3633166              -9.8863 (HOMO)
        36                         -0.1834735              -4.9926 (LUMO)
        37                         -0.0059579              -0.1621
        38                          0.0263366               0.7167
        39                          0.0401299               1.0920
        40                          0.0521609               1.4194
       ...                                ...                  ...
        62                          0.5531746              15.0526
      -------------------------------------------------------------
                  HL-Gap            0.1798432 Eh            4.8938 eV
             Fermi-level           -0.2733951 Eh           -7.4395 eV

 SCC (total)                   0 d,  0 h,  0 min,  0.024 sec
 SCC setup                      ...        0 min,  0.000 sec (  1.235%)
 Dispersion                     ...        0 min,  0.000 sec (  1.023%)
 classical contributions        ...        0 min,  0.000 sec (  0.373%)
 integral evaluation            ...        0 min,  0.002 sec (  6.441%)
 iterations                     ...        0 min,  0.016 sec ( 66.541%)
 molecular gradient             ...        0 min,  0.006 sec ( 23.582%)
 printout                       ...        0 min,  0.000 sec (  0.679%)

         :::::::::::::::::::::::::::::::::::::::::::::::::::::
         ::                     SUMMARY                     ::
         :::::::::::::::::::::::::::::::::::::::::::::::::::::
         :: total energy             -39.829961618026 Eh    ::
         :: gradient norm              0.000050189684 Eh/a0 ::
         :: HOMO-LUMO gap              4.893781291078 eV    ::
         ::.................................................::
         :: SCC energy               -40.245542287585 Eh    ::
         :: -> isotropic ES            0.099066404270 Eh    ::
         :: -> anisotropic ES         -0.003765594131 Eh    ::
         :: -> anisotropic XC          0.014427435780 Eh    ::
         :: -> dispersion             -0.024394689093 Eh    ::
         :: repulsion energy           0.415292735810 Eh    ::
         :: add. restraining           0.000000000000 Eh    ::
         :: total charge              -0.000000000000 e     ::
         :::::::::::::::::::::::::::::::::::::::::::::::::::::

      ----------------------------------------------------------- 
     |                   =====================                   |
     |                        A N C O P T                        |
     |                   =====================                   |
     |               Approximate Normal Coordinate               |
     |                Rational Function Optimizer                |
      ----------------------------------------------------------- 

          ...................................................
          :                      SETUP                      :
          :.................................................:
          :   optimization level         verytight          :
          :   max. optcycles                   520          :
          :   ANC micro-cycles                  20          :
          :   degrees of freedom                72          :
          :.................................................:
          :   RF solver                   davidson          :
          :   write xtbopt.log                true          :
          :   linear?                        false          :
          :   energy convergence         0.1000000E-06 Eh   :
          :   grad. convergence          0.2000000E-03 Eh/α :
          :   maxmium RF displ.          1.0000000          :
          :   Hlow (freq-cutoff)         0.1000000E-01      :
          :   Hmax (freq-cutoff)         5.0000000          :
          :   S6 in model hess.         20.0000000          :
          ...................................................

generating ANC from model Hessian ...
Using Lindh-Hessian (1995)
 Shifting diagonal of input Hessian by   7.493067443964475E-003
 Lowest  eigenvalues of input Hessian
    0.000000    0.000000    0.000000    0.000000    0.000000    0.000000
    0.010000    0.011061    0.013034    0.015659    0.018134    0.020174
    0.024186    0.024946    0.026460    0.028650    0.030699    0.032963
 Highest eigenvalues
    1.448869    1.498771    1.577302    1.717545    2.087522    2.248359
 

........................................................................
.............................. CYCLE    1 ..............................
........................................................................

 iter      E             dE          RMSdq      gap      omega  full diag
   1    -40.2455423 -0.402455E+02  0.372E-05    4.89       0.0  T
   2    -40.2455423 -0.357403E-11  0.211E-05    4.89     929.1  T
   3    -40.2455423 -0.376588E-12  0.801E-06    4.89    2447.6  T
     SCC iter.                  ...        0 min,  0.005 sec
     gradient                   ...        0 min,  0.008 sec
 * total energy  :   -39.8299616 Eh     change       -0.2992095E-10 Eh
   gradient norm :     0.0000496 Eh/α   predicted     0.0000000E+00 (-100.00%)
   displ. norm   :     0.0000744 α      lambda        0.0000000E+00
   maximum displ.:     0.0000308 α      in ANC's #71, #61, #68, ...

   *** GEOMETRY OPTIMIZATION CONVERGED AFTER 1 ITERATIONS ***

------------------------------------------------------------------------
 total energy gain   :        -0.0000000 Eh       -0.0000 kcal/mol
 total RMSD          :         0.0000001 a0        0.0000 Å
 total power (kW/mol):        -0.0000001 (step)   -0.0000 (real)
------------------------------------------------------------------------

 ANCopt (total)                0 d,  0 h,  0 min,  0.061 sec
 optimizer setup                ...        0 min,  0.000 sec (  0.233%)
 model hessian                  ...        0 min,  0.044 sec ( 71.517%)
 ANC generation                 ...        0 min,  0.001 sec (  1.348%)
 coordinate transformation      ...        0 min,  0.000 sec (  0.025%)
 single point calculation       ...        0 min,  0.016 sec ( 26.319%)
 optimization log               ...        0 min,  0.000 sec (  0.260%)
 hessian update                 ...        0 min,  0.000 sec (  0.005%)
 rational function              ...        0 min,  0.000 sec (  0.089%)

================
 final structure:
================
26
 xtb: 6.6.0 (8843059)
C           -0.77279400000000        2.05975000000000       -0.36620100000000
C           -1.99680800000000        1.14902500000000       -0.35534300000000
C           -1.63999100000000       -0.19209000000000        0.28605100000000
C           -0.45465800000000       -0.86237200000000       -0.46038600000000
O           -0.83731300000000       -1.05793900000000       -1.79138000000000
O           -0.16266900000000       -2.07444600000000        0.10958500000000
N           -1.22924000000000        0.00834400000000        1.66944800000000
C            0.36287900000000        1.33259100000000       -1.08669300000000
N            0.68543100000000        0.07305500000000       -0.44163800000000
C            1.66176600000000       -0.01623400000000        0.50577500000000
N            2.28593500000000        1.15973300000000        0.87703700000000
N            2.04175400000000       -1.17348700000000        0.91386400000000
H           -0.99711000000000        2.99662300000000       -0.87773700000000
H           -0.49247200000000        2.27742200000000        0.66590300000000
H           -2.33182900000000        0.96229800000000       -1.37563700000000
H           -2.81210600000000        1.61137100000000        0.20460700000000
H           -2.48948100000000       -0.88749000000000        0.18309900000000
H            0.77240600000000       -2.02500200000000        0.47649100000000
H           -0.85794400000000       -0.86596200000000        2.02937100000000
H           -2.03593500000000        0.25706500000000        2.23250500000000
H            0.03249300000000        1.08367200000000       -2.09951100000000
H            1.26827400000000        1.93535000000000       -1.15998700000000
H            2.93350900000000        1.06593500000000        1.64417800000000
H            1.72464100000000        1.99384200000000        0.91513200000000
H            2.76400000000000       -1.15579200000000        1.62289900000000
H           -0.34980000000000       -1.82539800000000       -2.11647900000000
 
 Bond Distances (Angstroems)
 ---------------------------
C1-C2=1.5257         C1-C8=1.5289         C1-H13=1.0907        C1-H14=1.0914        C2-C1=1.5257         C2-C3=1.5288         
C2-H15=1.0900        C2-H16=1.0918        C3-C2=1.5288         C3-C4=1.5529         C3-N7=1.4569         C3-H17=1.1026        
C4-C3=1.5529         C4-O5=1.3986         C4-O6=1.3709         C4-N9=1.4748         O5-C4=1.3986         O5-H26=0.9656        
O6-C4=1.3709         O6-H18=1.0057        N7-C3=1.4569         N7-H19=1.0158        N7-H20=1.0147        C8-C1=1.5289         
C8-N9=1.4514         C8-H21=1.0940        C8-H22=1.0902        N9-C4=1.4748         N9-C8=1.4514         N9-C10=1.3634        
C10-N9=1.3634        C10-N11=1.3821       C10-N12=1.2846       N11-C10=1.3821       N11-H23=1.0083       N11-H24=1.0061       
N12-C10=1.2846       N12-H25=1.0123       H13-C1=1.0907        H14-C1=1.0914        H15-C2=1.0900        H16-C2=1.0918        
H17-C3=1.1026        H18-O6=1.0057        H19-N7=1.0158        H20-N7=1.0147        H21-C8=1.0940        H22-C8=1.0902        
H23-N11=1.0083       H24-N11=1.0061       H25-N12=1.0123       H26-O5=0.9656        
 C  H  Rav=1.0930 sigma=0.0041  Rmin=1.0900  Rmax=1.1026     7
 C  C  Rav=1.5341 sigma=0.0109  Rmin=1.5257  Rmax=1.5529     4
 N  H  Rav=1.0114 sigma=0.0037  Rmin=1.0061  Rmax=1.0158     5
 N  C  Rav=1.4022 sigma=0.0664  Rmin=1.2846  Rmax=1.4748     6
 O  H  Rav=0.9856 sigma=0.0201  Rmin=0.9656  Rmax=1.0057     2
 O  C  Rav=1.3848 sigma=0.0139  Rmin=1.3709  Rmax=1.3986     2
 
 selected bond angles (degree)
 --------------------
C8-C1-C2=108.38                H13-C1-C2=110.55               H13-C1-C8=109.89               H14-C1-C2=108.56               
H14-C1-C8=110.47               H14-C1-H13=108.97              C3-C2-C1=109.84                H15-C2-C1=110.01               
H15-C2-C3=108.31               H16-C2-C1=110.48               H16-C2-C3=109.31               H16-C2-H15=108.85              
C4-C3-C2=110.80                N7-C3-C2=110.09                N7-C3-C4=107.49                H17-C3-C2=109.53               
H17-C3-C4=105.72               H17-C3-N7=113.12               O5-C4-C3=108.00                O6-C4-C3=110.14                
O6-C4-O5=109.29                N9-C4-C3=108.07                N9-C4-O5=108.20                N9-C4-O6=113.01                
H26-O5-C4=107.06               H18-O6-C4=107.83               H19-N7-C3=108.73               H20-N7-C3=109.66               
H20-N7-H19=107.76              N9-C8-C1=111.61                H21-C8-C1=108.67               H21-C8-N9=106.33               
H22-C8-C1=112.68               H22-C8-N9=108.97               H22-C8-H21=108.32              C8-N9-C4=111.90                
C10-N9-C4=121.39               C10-N9-C8=121.66               N11-C10-N9=117.02              N12-C10-N9=119.45              
N12-C10-N11=123.20             
 
 selected dihedral angles (degree)
 ---------------------------------
C3-C2-C1-C8= 55.94            C3-C2-C1-H13=176.44           C3-C2-C1-H14=295.92           H15-C2-C1-C8=296.81           
H15-C2-C1-H13= 57.31          H15-C2-C1-H14=176.79          H16-C2-C1-C8=176.60           H16-C2-C1-H13=297.10          
H16-C2-C1-H14= 56.58          C4-C3-C2-C1=302.98            C4-C3-C2-H15= 63.15           C4-C3-C2-H16=181.61           
N7-C3-C2-C1= 61.75            N7-C3-C2-H15=181.92           N7-C3-C2-H16=300.38           H17-C3-C2-C1=186.73           
H17-C3-C2-H15=306.90          H17-C3-C2-H16= 65.36          O5-C4-C3-C2=300.42            O5-C4-C3-N7=180.09            
O5-C4-C3-H17= 59.00           O6-C4-C3-C2=181.14            O6-C4-C3-N7= 60.81            O6-C4-C3-H17=299.72           
N9-C4-C3-C2= 57.25            N9-C4-C3-N7=296.92            N9-C4-C3-H17=175.83           H26-O5-C4-C3=208.42           
H26-O5-C4-O6=328.24           H26-O5-C4-N9= 91.67           H18-O6-C4-C3=242.86           H18-O6-C4-O5=124.37           
H18-O6-C4-N9=  3.84           H19-N7-C3-C2=188.90           H19-N7-C3-C4=309.68           H19-N7-C3-H17= 66.00          
H20-N7-C3-C2= 71.31           H20-N7-C3-C4=192.09           H20-N7-C3-H17=308.42          N9-C8-C1-C2=301.35            
N9-C8-C1-H13=180.45           N9-C8-C1-H14= 60.18           H21-C8-C1-C2= 58.30           H21-C8-C1-H13=297.39          
H21-C8-C1-H14=177.12          H22-C8-C1-C2=178.35           H22-C8-C1-H13= 57.45          H22-C8-C1-H14=297.18          
C8-N9-C4-C3=300.39            C8-N9-C4-O5= 57.09            C8-N9-C4-O6=178.25            C10-N9-C4-C3= 95.61           
C10-N9-C4-O5=212.31           C10-N9-C4-O6=333.46           C4-N9-C8-C1= 62.08            C4-N9-C8-H21=303.72           
C4-N9-C8-H22=187.17           C10-N9-C8-C1=266.94           C10-N9-C8-H21=148.58          C10-N9-C8-H22= 32.03          
N11-C10-N9-C4=210.46          N11-C10-N9-C8=  3.27          N12-C10-N9-C4= 36.87          N12-C10-N9-C8=189.67          
           -------------------------------------------------
          |                Final Singlepoint                |
           -------------------------------------------------

          ...................................................
          :                      SETUP                      :
          :.................................................:
          :  # basis functions                  62          :
          :  # atomic orbitals                  62          :
          :  # shells                           38          :
          :  # electrons                        70          :
          :  max. iterations                   250          :
          :  Hamiltonian                  GFN2-xTB          :
          :  restarted?                      false          :
          :  GBSA solvation                  false          :
          :  PC potential                    false          :
          :  electronic temp.          300.0000000     K    :
          :  accuracy                    1.0000000          :
          :  -> integral cutoff          0.2500000E+02      :
          :  -> integral neglect         0.1000000E-07      :
          :  -> SCF convergence          0.1000000E-05 Eh   :
          :  -> wf. convergence          0.1000000E-03 e    :
          :  Broyden damping             0.4000000          :
          ...................................................

 iter      E             dE          RMSdq      gap      omega  full diag
   1    -40.2455423 -0.402455E+02  0.239E-06    4.89       0.0  T
   2    -40.2455423  0.142109E-13  0.142E-06    4.89   13775.6  T
   3    -40.2455423 -0.710543E-14  0.533E-07    4.89   36827.6  T

   *** convergence criteria satisfied after 3 iterations ***

         #    Occupation            Energy/Eh            Energy/eV
      -------------------------------------------------------------
         1        2.0000           -0.6977168             -18.9858
       ...           ...                  ...                  ...
        29        2.0000           -0.4355394             -11.8516
        30        2.0000           -0.4324078             -11.7664
        31        2.0000           -0.4124645             -11.2237
        32        2.0000           -0.3961779             -10.7805
        33        2.0000           -0.3762166             -10.2374
        34        2.0000           -0.3709553             -10.0942
        35        2.0000           -0.3633164              -9.8863 (HOMO)
        36                         -0.1834730              -4.9926 (LUMO)
        37                         -0.0059575              -0.1621
        38                          0.0263367               0.7167
        39                          0.0401299               1.0920
        40                          0.0521613               1.4194
       ...                                ...                  ...
        62                          0.5531751              15.0527
      -------------------------------------------------------------
                  HL-Gap            0.1798434 Eh            4.8938 eV
             Fermi-level           -0.2733947 Eh           -7.4394 eV

 SCC (total)                   0 d,  0 h,  0 min,  0.016 sec
 SCC setup                      ...        0 min,  0.000 sec (  1.412%)
 Dispersion                     ...        0 min,  0.000 sec (  2.878%)
 classical contributions        ...        0 min,  0.000 sec (  1.337%)
 integral evaluation            ...        0 min,  0.002 sec ( 14.600%)
 iterations                     ...        0 min,  0.005 sec ( 28.726%)
 molecular gradient             ...        0 min,  0.008 sec ( 50.050%)
 printout                       ...        0 min,  0.000 sec (  0.826%)

         :::::::::::::::::::::::::::::::::::::::::::::::::::::
         ::                     SUMMARY                     ::
         :::::::::::::::::::::::::::::::::::::::::::::::::::::
         :: total energy             -39.829961618056 Eh    ::
         :: gradient norm              0.000049585653 Eh/a0 ::
         :: HOMO-LUMO gap              4.893788521093 eV    ::
         ::.................................................::
         :: SCC energy               -40.245542287615 Eh    ::
         :: -> isotropic ES            0.099067192869 Eh    ::
         :: -> anisotropic ES         -0.003765446986 Eh    ::
         :: -> anisotropic XC          0.014427466888 Eh    ::
         :: -> dispersion             -0.024394691680 Eh    ::
         :: repulsion energy           0.415292735810 Eh    ::
         :: add. restraining           0.000000000000 Eh    ::
         :: total charge               0.000000000000 e     ::
         :::::::::::::::::::::::::::::::::::::::::::::::::::::

           ------------------------------------------------- 
          |                Numerical Hessian                |
           ------------------------------------------------- 
step length          :   0.00500
SCC accuracy         :   0.30000
Hessian scale factor :   1.00000
frozen atoms in %    :   0.00000    0
RMS gradient         :   0.00005
estimated CPU  time      0.91 min
estimated wall time      0.12 min

writing file <hessian>.

 projected vibrational frequencies (cm⁻¹)
eigval :       -0.00     0.00     0.00     0.00     0.00     0.00
eigval :       42.27    80.07   131.25   198.20   223.49   264.05
eigval :      275.56   291.17   308.38   339.76   358.64   369.66
eigval :      414.99   432.64   479.27   496.09   527.13   548.73
eigval :      556.21   593.57   640.52   662.59   686.94   722.24
eigval :      737.15   874.09   880.80   910.82   943.27   988.80
eigval :     1009.73  1030.74  1035.18  1044.48  1056.48  1094.45
eigval :     1115.36  1123.96  1147.90  1161.61  1196.31  1213.33
eigval :     1218.75  1253.21  1280.90  1310.68  1320.80  1330.85
eigval :     1338.38  1345.68  1366.65  1429.05  1461.20  1466.60
eigval :     1481.61  1501.17  1550.21  1658.30  2678.63  2836.35
eigval :     2957.41  2970.32  2982.93  2989.31  2993.98  3007.49
eigval :     3380.77  3409.60  3413.58  3461.68  3515.11  3525.06
           -------------------------------------------------
          |                Property Printout                |
           -------------------------------------------------

    * Orbital Energies and Occupations

         #    Occupation            Energy/Eh            Energy/eV
      -------------------------------------------------------------
         1        2.0000           -0.6977168             -18.9858
       ...           ...                  ...                  ...
        23        2.0000           -0.4888148             -13.3013
        24        2.0000           -0.4811661             -13.0932
        25        2.0000           -0.4707133             -12.8088
        26        2.0000           -0.4662358             -12.6869
        27        2.0000           -0.4537557             -12.3473
        28        2.0000           -0.4449446             -12.1076
        29        2.0000           -0.4355394             -11.8516
        30        2.0000           -0.4324078             -11.7664
        31        2.0000           -0.4124644             -11.2237
        32        2.0000           -0.3961779             -10.7805
        33        2.0000           -0.3762166             -10.2374
        34        2.0000           -0.3709552             -10.0942
        35        2.0000           -0.3633164              -9.8863 (HOMO)
        36                         -0.1834730              -4.9926 (LUMO)
        37                         -0.0059575              -0.1621
        38                          0.0263367               0.7167
        39                          0.0401299               1.0920
        40                          0.0521613               1.4194
        41                          0.0713434               1.9414
        42                          0.0814288               2.2158
        43                          0.0943765               2.5681
        44                          0.1018973               2.7728
        45                          0.1251377               3.4052
        46                          0.1357496               3.6939
       ...                                ...                  ...
        62                          0.5531751              15.0527
      -------------------------------------------------------------
                  HL-Gap            0.1798434 Eh            4.8938 eV
             Fermi-level           -0.2733947 Eh           -7.4394 eV

     #   Z          covCN         q      C6AA      α(0)
     1   6 C        3.805    -0.066    21.770     6.642
     2   6 C        3.809    -0.066    21.765     6.641
     3   6 C        3.785     0.045    19.832     6.343
     4   6 C        3.606     0.332    16.119     5.802
     5   8 O        1.657    -0.458    21.997     6.331
     6   8 O        1.651    -0.490    22.689     6.430
     7   7 N        2.634    -0.358    29.219     8.028
     8   6 C        3.756    -0.003    20.688     6.485
     9   7 N        2.748    -0.164    24.546     7.358
    10   6 C        2.743     0.239    23.010     7.854
    11   7 N        2.642    -0.309    27.953     7.852
    12   7 N        1.830    -0.441    32.557     8.455
    13   1 H        0.924     0.039     2.461     2.453
    14   1 H        0.924     0.046     2.366     2.405
    15   1 H        0.925     0.053     2.283     2.363
    16   1 H        0.924     0.038     2.475     2.460
    17   1 H        0.923     0.020     2.734     2.586
    18   1 H        0.839     0.340     0.607     1.221
    19   1 H        0.860     0.152     1.390     1.847
    20   1 H        0.860     0.143     1.452     1.888
    21   1 H        0.924     0.066     2.125     2.279
    22   1 H        0.925     0.050     2.322     2.383
    23   1 H        0.860     0.168     1.285     1.776
    24   1 H        0.860     0.175     1.244     1.747
    25   1 H        0.860     0.132     1.529     1.937
    26   1 H        0.805     0.318     0.670     1.286

 Mol. C6AA /au·bohr⁶  :       5789.992258
 Mol. C8AA /au·bohr⁸  :     123706.715235
 Mol. α(0) /au        :        112.854670


Wiberg/Mayer (AO) data.
largest (>0.10) Wiberg bond orders for each atom

 ---------------------------------------------------------------------------
     #   Z sym  total        # sym  WBO       # sym  WBO       # sym  WBO
 ---------------------------------------------------------------------------
     1   6 C    3.998 --     2 C    1.009     8 C    0.997    13 H    0.976
                            14 H    0.973
     2   6 C    3.997 --     1 C    1.009     3 C    0.995    16 H    0.975
                            15 H    0.974
     3   6 C    3.986 --     7 N    1.017     2 C    0.995    17 H    0.958
                             4 C    0.932
     4   6 C    3.932 --     6 O    1.035     5 O    0.981     3 C    0.932
                             9 N    0.920
     5   8 O    1.979 --     4 C    0.981    26 H    0.878
     6   8 O    1.957 --     4 C    1.035    18 H    0.744
     7   7 N    2.997 --     3 C    1.017    20 H    0.965    19 H    0.958
     8   6 C    3.972 --     1 C    0.997     9 N    0.989    22 H    0.969
                            21 H    0.965
     9   7 N    3.382 --    10 C    1.179     8 C    0.989     4 C    0.920
                            12 N    0.112
    10   6 C    3.964 --    12 N    1.598     9 N    1.179    11 N    1.136
    11   7 N    3.237 --    10 C    1.136    23 H    0.951    24 H    0.941
                            12 N    0.131
    12   7 N    3.010 --    10 C    1.598    25 H    0.949    11 N    0.131
                            18 H    0.120     9 N    0.112
    13   1 H    0.998 --     1 C    0.976
    14   1 H    0.998 --     1 C    0.973
    15   1 H    0.997 --     2 C    0.974
    16   1 H    0.998 --     2 C    0.975
    17   1 H    1.000 --     3 C    0.958
    18   1 H    0.884 --     6 O    0.744    12 N    0.120
    19   1 H    0.977 --     7 N    0.958
    20   1 H    0.980 --     7 N    0.965
    21   1 H    0.996 --     8 C    0.965
    22   1 H    0.998 --     8 C    0.969
    23   1 H    0.971 --    11 N    0.951
    24   1 H    0.969 --    11 N    0.941
    25   1 H    0.982 --    12 N    0.949
    26   1 H    0.899 --     5 O    0.878
 ---------------------------------------------------------------------------

Topologies differ in total number of bonds
Writing topology from bond orders to xtbtopo.mol

molecular dipole:
                 x           y           z       tot (Debye)
 q only:        0.286       1.185       0.196
   full:        0.318       1.319       0.690       3.869
molecular quadrupole (traceless):
                xx          xy          yy          xz          yz          zz
 q only:       -0.682       0.959      -0.776       0.293       1.799       1.458
  q+dip:        1.461       2.372      -3.931       0.885       2.888       2.470
   full:        1.265       1.953      -3.955       0.921       2.599       2.690

           -------------------------------------------------
          |                Geometry Summary                 |
           -------------------------------------------------

      molecular mass/u    :      174.2012086
   center of mass at/Å    :        0.0000038      -0.0000036       0.0000029
  moments of inertia/u·Å² :        0.4057908E+03   0.5136995E+03   0.6262344E+03
rotational constants/cm⁻¹ :        0.4154266E-01   0.3281614E-01   0.2691905E-01

 * 23 selected distances

     #   Z          #   Z                                           value/Å
     1   6 C        2   6 C                                       1.5256961
     2   6 C        3   6 C                                       1.5288213
     4   6 C        5   8 O                                       1.3986482
     4   6 C        6   8 O                                       1.3708568
     3   6 C        7   7 N                                       1.4569413
     1   6 C        8   6 C                                       1.5289286 (max)
     4   6 C        9   7 N                                       1.4748486
     8   6 C        9   7 N                                       1.4514018
     9   7 N       10   6 C                                       1.3633761
    10   6 C       11   7 N                                       1.3821437
    10   6 C       12   7 N                                       1.2845864
     1   6 C       13   1 H                                       1.0907419
     1   6 C       14   1 H                                       1.0914213
     2   6 C       15   1 H                                       1.0900028
     2   6 C       16   1 H                                       1.0917962
     3   6 C       17   1 H                                       1.1026395
     7   7 N       19   1 H                                       1.0157837
     7   7 N       20   1 H                                       1.0147179
     8   6 C       21   1 H                                       1.0940366
     8   6 C       22   1 H                                       1.0901517
    11   7 N       23   1 H                                       1.0082934
    11   7 N       24   1 H                                       1.0061015
     5   8 O       26   1 H                                       0.9655836 (min)

 * 6 distinct bonds (by element types)

   Z      Z             #   av. dist./Å        max./Å        min./Å
   1 H    6 C           7     1.0929700     1.1026395     1.0900028
   6 C    6 C           3     1.5278153     1.5289286     1.5256961
   1 H    7 N           4     1.0112241     1.0157837     1.0061015
   6 C    7 N           6     1.4022163     1.4748486     1.2845864
   1 H    8 O           1     0.9655836     0.9655836     0.9655836
   6 C    8 O           2     1.3847525     1.3986482     1.3708568

           -------------------------------------------------
          |               Frequency Printout                |
           -------------------------------------------------
 projected vibrational frequencies (cm⁻¹)
eigval :       -0.00     0.00     0.00     0.00     0.00     0.00
eigval :       42.27    80.07   131.25   198.20   223.49   264.05
eigval :      275.56   291.17   308.38   339.76   358.64   369.66
eigval :      414.99   432.64   479.27   496.09   527.13   548.73
eigval :      556.21   593.57   640.52   662.59   686.94   722.24
eigval :      737.15   874.09   880.80   910.82   943.27   988.80
eigval :     1009.73  1030.74  1035.18  1044.48  1056.48  1094.45
eigval :     1115.36  1123.96  1147.90  1161.61  1196.31  1213.33
eigval :     1218.75  1253.21  1280.90  1310.68  1320.80  1330.85
eigval :     1338.38  1345.68  1366.65  1429.05  1461.20  1466.60
eigval :     1481.61  1501.17  1550.21  1658.30  2678.63  2836.35
eigval :     2957.41  2970.32  2982.93  2989.31  2993.98  3007.49
eigval :     3380.77  3409.60  3413.58  3461.68  3515.11  3525.06
 reduced masses (amu)
   1: 11.49   2: 11.63   3: 11.97   4: 12.81   5: 11.99   6: 13.10   7: 12.39   8: 11.70
   9: 10.74  10: 11.88  11:  9.59  12:  3.24  13:  3.88  14:  6.73  15: 10.36  16: 12.26
  17:  9.94  18:  9.64  19:  7.52  20: 11.60  21:  8.31  22: 11.67  23:  8.24  24:  7.33
  25: 11.48  26: 11.20  27:  8.85  28:  9.46  29:  2.63  30:  8.64  31:  5.45  32:  8.58
  33:  5.35  34:  7.64  35:  7.23  36:  7.21  37:  7.15  38:  4.59  39:  7.84  40:  7.32
  41:  8.93  42:  5.05  43:  8.46  44:  9.26  45:  6.13  46:  6.56  47:  4.84  48:  7.72
  49:  6.17  50:  5.20  51:  5.80  52:  4.45  53:  5.11  54:  6.06  55:  4.37  56:  5.01
  57:  3.66  58:  8.19  59:  2.01  60:  2.49  61:  3.21  62:  4.12  63:  2.12  64: 11.98
  65:  2.00  66:  1.72  67:  1.78  68:  1.79  69:  1.97  70:  1.52  71:  1.64  72:  1.73
  73:  1.52  74:  2.07  75:  1.87  76:  1.48  77:  2.13  78:  1.87
 IR intensities (km·mol⁻¹)
   1:  0.38   2:  0.65   3:  0.25   4:  0.04   5:  0.28   6:  0.85   7:  2.12   8:  4.57
   9:  1.27  10:  2.22  11:  3.13  12: 87.60  13: 39.39  14: 51.99  15:  4.64  16: 21.98
  17: 10.19  18:  5.49  19: 16.01  20: 13.58  21:  2.52  22:  5.67  23: 59.69  24:136.72
  25:  9.43  26: 20.82  27: 44.51  28: 23.68  29: 25.91  30: 20.13  31:257.30  32: 16.49
  33: 21.33  34: 28.62  35: 55.92  36: 54.44  37: 25.86  38:  9.03  39:144.58  40: 50.32
  41:119.35  42:  5.87  43: 73.50  44: 66.02  45:  7.22  46:  2.95  47: 16.33  48: 10.98
  49: 42.79  50: 31.48  51:146.04  52: 12.39  53: 13.00  54: 17.94  55: 18.87  56:  1.65
  57:332.11  58:232.27  59:  2.08  60: 15.80  61: 59.90  62:191.47  63: 42.85  64:445.46
  65:923.85  66: 94.39  67:  6.65  68: 47.32  69: 32.16  70: 29.48  71: 56.26  72: 38.34
  73:  8.68  74:  3.72  75: 14.40  76:  2.96  77:  2.88  78: 29.91
 Raman intensities (amu)
   1:  0.00   2:  0.00   3:  0.00   4:  0.00   5:  0.00   6:  0.00   7:  0.00   8:  0.00
   9:  0.00  10:  0.00  11:  0.00  12:  0.00  13:  0.00  14:  0.00  15:  0.00  16:  0.00
  17:  0.00  18:  0.00  19:  0.00  20:  0.00  21:  0.00  22:  0.00  23:  0.00  24:  0.00
  25:  0.00  26:  0.00  27:  0.00  28:  0.00  29:  0.00  30:  0.00  31:  0.00  32:  0.00
  33:  0.00  34:  0.00  35:  0.00  36:  0.00  37:  0.00  38:  0.00  39:  0.00  40:  0.00
  41:  0.00  42:  0.00  43:  0.00  44:  0.00  45:  0.00  46:  0.00  47:  0.00  48:  0.00
  49:  0.00  50:  0.00  51:  0.00  52:  0.00  53:  0.00  54:  0.00  55:  0.00  56:  0.00
  57:  0.00  58:  0.00  59:  0.00  60:  0.00  61:  0.00  62:  0.00  63:  0.00  64:  0.00
  65:  0.00  66:  0.00  67:  0.00  68:  0.00  69:  0.00  70:  0.00  71:  0.00  72:  0.00
  73:  0.00  74:  0.00  75:  0.00  76:  0.00  77:  0.00  78:  0.00
 output can be read by thermo (or use thermo option).
 writing <g98.out> molden fake output.
 recommended (thermochemical) frequency scaling factor: 1.0
           -------------------------------------------------
          |             Thermodynamic Functions             |
           -------------------------------------------------

Molecule has no symmetry elements
It seems to be the C1 point group
c1  symmetry found (for desy threshold:  0.10E+00) used in thermo

          ...................................................
          :                      SETUP                      :
          :.................................................:
          :  # frequencies                          72      :
          :  # imaginary freq.                       0      :
          :  linear?                             false      :
          :  only rotor calc.                    false      :
          :  symmetry                               c1      :
          :  rotational number                       1      :
          :  scaling factor                  1.0000000      :
          :  rotor cutoff                   50.0000000 cm⁻¹ :
          :  imag. cutoff                  -20.0000000 cm⁻¹ :
          :.................................................:

    mode    ω/cm⁻¹     T·S(HO)/kcal·mol⁻¹    T·S(FR)/kcal·mol⁻¹   T·S(vib)
   ------------------------------------------------------------------------
       1     42.27    -1.53545 ( 33.80%)    -1.10610 ( 66.20%)    -1.25123
       2     80.07    -1.15953 ( 86.80%)    -0.91692 ( 13.20%)    -1.12751
       3    131.25    -0.87290 ( 97.94%)    -0.77059 (  2.06%)    -0.87078
       4    198.20    -0.64094 ( 99.60%)    -0.64850 (  0.40%)    -0.64097
       5    223.49    -0.57561 ( 99.75%)    -0.61293 (  0.25%)    -0.57570
       6    264.05    -0.48742 ( 99.87%)    -0.56353 (  0.13%)    -0.48752
       7    275.56    -0.46544 ( 99.89%)    -0.55090 (  0.11%)    -0.46553
       8    291.17    -0.43743 ( 99.91%)    -0.53458 (  0.09%)    -0.43752
   ------------------------------------------------------------------------

   temp. (K)  partition function   enthalpy   heat capacity  entropy
                                   cal/mol     cal/K/mol   cal/K/mol   J/K/mol
 298.15  VIB  0.155E+04             5824.208     41.959     33.064
         ROT  0.873E+06              888.752      2.981     30.166
         INT  0.135E+10             6712.960     44.940     63.230
         TR   0.222E+28             1481.254      4.968     41.354
         TOT                        8194.2139    49.9082   104.5837   437.5782

       T/K    H(0)-H(T)+PV         H(T)/Eh          T*S/Eh         G(T)/Eh
   ------------------------------------------------------------------------
    298.15    0.130583E-01    0.228673E+00    0.496911E-01    0.178982E+00
   ------------------------------------------------------------------------

         :::::::::::::::::::::::::::::::::::::::::::::::::::::
         ::                  THERMODYNAMIC                  ::
         :::::::::::::::::::::::::::::::::::::::::::::::::::::
         :: total free energy         -39.650979229629 Eh   ::
         ::.................................................::
         :: total energy              -39.829961618056 Eh   ::
         :: zero point energy           0.215615173078 Eh   ::
         :: G(RRHO) w/o ZPVE           -0.036632784652 Eh   ::
         :: G(RRHO) contrib.            0.178982388426 Eh   ::
         :::::::::::::::::::::::::::::::::::::::::::::::::::::

optimized geometry written to: xtbopt.xyz


           -------------------------------------------------
          | TOTAL ENERGY              -39.829961618056 Eh   |
          | TOTAL ENTHALPY            -39.601288133975 Eh   |
          | TOTAL FREE ENERGY         -39.650979229629 Eh   |
          | GRADIENT NORM               0.000049577324 Eh/α |
          | HOMO-LUMO GAP               4.893788471050 eV   |
           -------------------------------------------------

------------------------------------------------------------------------
 * finished run on 2025/07/30 at 12:34:54.029     
------------------------------------------------------------------------
 total:
 * wall-time:     0 d,  0 h,  0 min,  1.052 sec
 *  cpu-time:     0 d,  0 h,  0 min,  8.139 sec
 * ratio c/w:     7.738 speedup
 SCF:
 * wall-time:     0 d,  0 h,  0 min,  0.024 sec
 *  cpu-time:     0 d,  0 h,  0 min,  0.182 sec
 * ratio c/w:     7.667 speedup
 ANC optimizer:
 * wall-time:     0 d,  0 h,  0 min,  0.078 sec
 *  cpu-time:     0 d,  0 h,  0 min,  0.543 sec
 * ratio c/w:     6.949 speedup
 analytical hessian:
 * wall-time:     0 d,  0 h,  0 min,  0.928 sec
 *  cpu-time:     0 d,  0 h,  0 min,  7.266 sec
 * ratio c/w:     7.832 speedup

