26
 energy: -39.829961618056 gnorm: 0.000049609649 xtb: 6.6.0 (8843059)
C           -0.77279400000000        2.05975000000000       -0.36620100000000
C           -1.99680800000000        1.14902500000000       -0.35534300000000
C           -1.63999100000000       -0.19209000000000        0.28605100000000
C           -0.45465800000000       -0.86237200000000       -0.46038600000000
O           -0.83731300000000       -1.05793900000000       -1.79138000000000
O           -0.16266900000000       -2.07444600000000        0.10958500000000
N           -1.22924000000000        0.00834400000000        1.66944800000000
C            0.36287900000000        1.33259100000000       -1.08669300000000
N            0.68543100000000        0.07305500000000       -0.44163800000000
C            1.66176600000000       -0.01623400000000        0.50577500000000
N            2.28593500000000        1.15973300000000        0.87703700000000
N            2.04175400000000       -1.17348700000000        0.91386400000000
H           -0.99711000000000        2.99662300000000       -0.87773700000000
H           -0.49247200000000        2.27742200000000        0.66590300000000
H           -2.33182900000000        0.96229800000000       -1.37563700000000
H           -2.81210600000000        1.61137100000000        0.20460700000000
H           -2.48948100000000       -0.88749000000000        0.18309900000000
H            0.77240600000000       -2.02500200000000        0.47649100000000
H           -0.85794400000000       -0.86596200000000        2.02937100000000
H           -2.03593500000000        0.25706500000000        2.23250500000000
H            0.03249300000000        1.08367200000000       -2.09951100000000
H            1.26827400000000        1.93535000000000       -1.15998700000000
H            2.93350900000000        1.06593500000000        1.64417800000000
H            1.72464100000000        1.99384200000000        0.91513200000000
H            2.76400000000000       -1.15579200000000        1.62289900000000
H           -0.34980000000000       -1.82539800000000       -2.11647900000000
