      -----------------------------------------------------------      
     |                   =====================                   |     
     |                           x T B                           |     
     |                   =====================                   |     
     |                         S. Grimme                         |     
     |          Mulliken Center for Theoretical Chemistry        |     
     |                    University of Bonn                     |     
      -----------------------------------------------------------      

   * xtb version 6.6.0 (8843059) compiled by 'stahn@majestix' on 2023-02-09

   xtb is free software: you can redistribute it and/or modify it under
   the terms of the GNU Lesser General Public License as published by
   the Free Software Foundation, either version 3 of the License, or
   (at your option) any later version.
   
   xtb is distributed in the hope that it will be useful,
   but WITHOUT ANY WARRANTY; without even the implied warranty of
   MERCHANTABILITY or FITNESS FOR A PARTICULAR PURPOSE.  See the
   GNU Lesser General Public License for more details.
   
   Cite this work as:
   * C. Bannwarth, E. Caldeweyher, S. Ehlert, A. Hansen, P. Pracht,
     J. Seibert, S. Spicher, S. Grimme, WIREs Comput. Mol. Sci., 2020, 11,
     e01493. DOI: 10.1002/wcms.1493
   
   for GFN2-xTB:
   * C. Bannwarth, S. Ehlert and S. Grimme., J. Chem. Theory Comput., 2019,
     15, 1652-1671. DOI: 10.1021/acs.jctc.8b01176
   for GFN1-xTB:
   * S. Grimme, C. Bannwarth, P. Shushkov, J. Chem. Theory Comput., 2017,
     13, 1989-2009. DOI: 10.1021/acs.jctc.7b00118
   for GFN0-xTB:
   * P. Pracht, E. Caldeweyher, S. Ehlert, S. Grimme, ChemRxiv, 2019, preprint.
     DOI: 10.26434/chemrxiv.8326202.v1
   for GFN-FF:
   * S. Spicher and S. Grimme, Angew. Chem. Int. Ed., 2020, 59, 15665-15673.
     DOI: 10.1002/anie.202004239
   
   for ALPB and GBSA implicit solvation:
   * S. Ehlert, M. Stahn, S. Spicher, S. Grimme, J. Chem. Theory Comput.,
     2021, 17, 4250-4261. DOI: 10.1021/acs.jctc.1c00471
   
   for DFT-D4:
   * E. Caldeweyher, C. Bannwarth and S. Grimme, J. Chem. Phys., 2017,
     147, 034112. DOI: 10.1063/1.4993215
   * E. Caldeweyher, S. Ehlert, A. Hansen, H. Neugebauer, S. Spicher,
     C. Bannwarth and S. Grimme, J. Chem. Phys., 2019, 150, 154122.
     DOI: 10.1063/1.5090222
   * E. Caldeweyher, J.-M. Mewes, S. Ehlert and S. Grimme, Phys. Chem. Chem. Phys.
     2020, 22, 8499-8512. DOI: 10.1039/D0CP00502A
   
   for sTDA-xTB:
   * S. Grimme and C. Bannwarth, J. Chem. Phys., 2016, 145, 054103.
     DOI: 10.1063/1.4959605
   
   in the mass-spec context:
   * V. Asgeirsson, C. Bauer and S. Grimme, Chem. Sci., 2017, 8, 4879.
     DOI: 10.1039/c7sc00601b
   * J. Koopman and S. Grimme, ACS Omega 2019, 4, 12, 15120-15133.
     DOI: 10.1021/acsomega.9b02011
   
   for metadynamics refer to:
   * S. Grimme, J. Chem. Theory Comput., 2019, 155, 2847-2862
     DOI: 10.1021/acs.jctc.9b00143
   
   for SPH calculations refer to:
   * S. Spicher and S. Grimme, J. Chem. Theory Comput., 2021, 17, 1701-1714
     DOI: 10.1021/acs.jctc.0c01306
   
   with help from (in alphabetical order)
   P. Atkinson, C. Bannwarth, F. Bohle, G. Brandenburg, E. Caldeweyher
   M. Checinski, S. Dohm, S. Ehlert, S. Ehrlich, I. Gerasimov, C. Hölzer
   A. Katbashev, J. Koopman, C. Lavigne, S. Lehtola, F. März, M. Müller,
   F. Musil, H. Neugebauer, J. Pisarek, C. Plett, P. Pracht, F. Pultar,
   J. Seibert, P. Shushkov, S. Spicher, M. Stahn, M. Steiner, T. Strunk,
   J. Stückrath, T. Rose, and J. Unsleber
   
 * started run on 2025/07/30 at 12:16:26.296     

           -------------------------------------------------
          |                Calculation Setup                |
           -------------------------------------------------

          program call               : xtb --gfn2 in.xyz --opt vtight
          coordinate file            : in.xyz
          omp threads                :                     8

   ID    Z sym.   atoms
    1    6 C      1-3
    2    8 O      4, 5
    3    7 N      6
    4    1 H      7-13

           -------------------------------------------------
          |                 G F N 2 - x T B                 |
           -------------------------------------------------

        Reference                      10.1021/acs.jctc.8b01176
      * Hamiltonian:
        H0-scaling (s, p, d)           1.850000    2.230000    2.230000
        zeta-weighting                 0.500000
      * Dispersion:
        s8                             2.700000
        a1                             0.520000
        a2                             5.000000
        s9                             5.000000
      * Repulsion:
        kExp                           1.500000    1.000000
        rExp                           1.000000
      * Coulomb:
        alpha                          2.000000
        third order                    shell-resolved
        anisotropic                    true
        a3                             3.000000
        a5                             4.000000
        cn-shift                       1.200000
        cn-exp                         4.000000
        max-rad                        5.000000


          ...................................................
          :                      SETUP                      :
          :.................................................:
          :  # basis functions                  31          :
          :  # atomic orbitals                  31          :
          :  # shells                           19          :
          :  # electrons                        36          :
          :  max. iterations                   250          :
          :  Hamiltonian                  GFN2-xTB          :
          :  restarted?                      false          :
          :  GBSA solvation                  false          :
          :  PC potential                    false          :
          :  electronic temp.          300.0000000     K    :
          :  accuracy                    1.0000000          :
          :  -> integral cutoff          0.2500000E+02      :
          :  -> integral neglect         0.1000000E-07      :
          :  -> SCF convergence          0.1000000E-05 Eh   :
          :  -> wf. convergence          0.1000000E-03 e    :
          :  Broyden damping             0.4000000          :
          ...................................................

 iter      E             dE          RMSdq      gap      omega  full diag
   1    -21.1488296 -0.211488E+02  0.442E+00    3.62       0.0  T
   2    -21.1879244 -0.390948E-01  0.227E+00    3.33       1.0  T
   3    -21.1903751 -0.245074E-02  0.134E+00    3.61       1.0  T
   4    -21.1947187 -0.434353E-02  0.201E-01    3.24       1.0  T
   5    -21.1948944 -0.175718E-03  0.770E-02    3.21       1.0  T
   6    -21.1949030 -0.856226E-05  0.301E-02    3.20       1.0  T
   7    -21.1949047 -0.171581E-05  0.829E-03    3.21       3.3  T
   8    -21.1949048 -0.110272E-06  0.362E-03    3.21       7.7  T
   9    -21.1949048 -0.419429E-07  0.942E-04    3.21      29.4  T
  10    -21.1949048 -0.185449E-08  0.373E-04    3.21      74.4  T

   *** convergence criteria satisfied after 10 iterations ***

         #    Occupation            Energy/Eh            Energy/eV
      -------------------------------------------------------------
         1        2.0000           -0.7360206             -20.0281
       ...           ...                  ...                  ...
        12        2.0000           -0.4957085             -13.4889
        13        2.0000           -0.4872129             -13.2577
        14        2.0000           -0.4826274             -13.1330
        15        2.0000           -0.4645258             -12.6404
        16        2.0000           -0.4592299             -12.4963
        17        2.0000           -0.4208430             -11.4517
        18        2.0000           -0.3713435             -10.1048 (HOMO)
        19                         -0.2534574              -6.8969 (LUMO)
        20                         -0.0487738              -1.3272
        21                          0.0250908               0.6828
        22                          0.0844874               2.2990
        23                          0.0859139               2.3378
       ...                                ...                  ...
        31                          0.5077986              13.8179
      -------------------------------------------------------------
                  HL-Gap            0.1178861 Eh            3.2078 eV
             Fermi-level           -0.3124004 Eh           -8.5008 eV

 SCC (total)                   0 d,  0 h,  0 min,  0.030 sec
 SCC setup                      ...        0 min,  0.002 sec (  6.170%)
 Dispersion                     ...        0 min,  0.000 sec (  1.038%)
 classical contributions        ...        0 min,  0.000 sec (  0.727%)
 integral evaluation            ...        0 min,  0.002 sec (  5.701%)
 iterations                     ...        0 min,  0.019 sec ( 63.079%)
 molecular gradient             ...        0 min,  0.006 sec ( 21.280%)
 printout                       ...        0 min,  0.001 sec (  1.914%)

         :::::::::::::::::::::::::::::::::::::::::::::::::::::
         ::                     SUMMARY                     ::
         :::::::::::::::::::::::::::::::::::::::::::::::::::::
         :: total energy             -21.015556870787 Eh    ::
         :: gradient norm              0.124813460599 Eh/a0 ::
         :: HOMO-LUMO gap              3.207843720854 eV    ::
         ::.................................................::
         :: SCC energy               -21.194904823405 Eh    ::
         :: -> isotropic ES            0.063335579990 Eh    ::
         :: -> anisotropic ES          0.002967109487 Eh    ::
         :: -> anisotropic XC          0.008084979411 Eh    ::
         :: -> dispersion             -0.006982085774 Eh    ::
         :: repulsion energy           0.179338211476 Eh    ::
         :: add. restraining           0.000000000000 Eh    ::
         :: total charge               0.000000000000 e     ::
         :::::::::::::::::::::::::::::::::::::::::::::::::::::

      ----------------------------------------------------------- 
     |                   =====================                   |
     |                        A N C O P T                        |
     |                   =====================                   |
     |               Approximate Normal Coordinate               |
     |                Rational Function Optimizer                |
      ----------------------------------------------------------- 

          ...................................................
          :                      SETUP                      :
          :.................................................:
          :   optimization level         verytight          :
          :   max. optcycles                   260          :
          :   ANC micro-cycles                  20          :
          :   degrees of freedom                33          :
          :.................................................:
          :   RF solver                   davidson          :
          :   write xtbopt.log                true          :
          :   linear?                        false          :
          :   energy convergence         0.1000000E-06 Eh   :
          :   grad. convergence          0.2000000E-03 Eh/α :
          :   maxmium RF displ.          1.0000000          :
          :   Hlow (freq-cutoff)         0.1000000E-01      :
          :   Hmax (freq-cutoff)         5.0000000          :
          :   S6 in model hess.         20.0000000          :
          ...................................................

generating ANC from model Hessian ...
Using Lindh-Hessian (1995)
 Shifting diagonal of input Hessian by   4.358836904883436E-003
 Lowest  eigenvalues of input Hessian
    0.000000    0.000000    0.000000    0.000000    0.000000    0.000000
    0.010000    0.013128    0.014850    0.017770    0.022875    0.023831
    0.046778    0.055729    0.059934    0.067000    0.076035    0.083681
 Highest eigenvalues
    1.141836    1.156842    1.307255    1.441214    1.758181    2.136309
 

........................................................................
.............................. CYCLE    1 ..............................
........................................................................

 iter      E             dE          RMSdq      gap      omega  full diag
   1    -21.1949048 -0.211949E+02  0.114E-04    3.21       0.0  T
   2    -21.1949048 -0.239950E-10  0.669E-05    3.21     414.7  T
   3    -21.1949048 -0.500577E-11  0.399E-05    3.21     694.5  T
     SCC iter.                  ...        0 min,  0.003 sec
     gradient                   ...        0 min,  0.003 sec
 * total energy  :   -21.0155569 Eh     change       -0.3408545E-09 Eh
   gradient norm :     0.1248183 Eh/α   predicted     0.0000000E+00 (-100.00%)
   displ. norm   :     0.3980527 α      lambda       -0.2533108E-01
   maximum displ.:     0.2119695 α      in ANC's #6, #14, #19, ...

........................................................................
.............................. CYCLE    2 ..............................
........................................................................

 iter      E             dE          RMSdq      gap      omega  full diag
   1    -21.2325218 -0.212325E+02  0.398E-01    3.69       0.0  T
   2    -21.2327040 -0.182114E-03  0.246E-01    3.63       1.0  T
   3    -21.2327048 -0.812156E-06  0.675E-02    3.62       1.0  T
   4    -21.2327197 -0.149730E-04  0.143E-02    3.61       1.9  T
   5    -21.2327202 -0.498599E-06  0.661E-03    3.61       4.2  T
   6    -21.2327203 -0.580494E-07  0.197E-03    3.61      14.1  T
   7    -21.2327203 -0.116789E-07  0.974E-04    3.61      28.5  T
   8    -21.2327203 -0.142617E-08  0.219E-04    3.61     126.8  T
     SCC iter.                  ...        0 min,  0.017 sec
     gradient                   ...        0 min,  0.002 sec
 * total energy  :   -21.0328802 Eh     change       -0.1732330E-01 Eh
   gradient norm :     0.0476944 Eh/α   predicted    -0.1467235E-01 ( -15.30%)
   displ. norm   :     0.3333702 α      lambda       -0.7731288E-02
   maximum displ.:     0.1817164 α      in ANC's #6, #14, #7, ...

........................................................................
.............................. CYCLE    3 ..............................
........................................................................

 iter      E             dE          RMSdq      gap      omega  full diag
   1    -21.2462202 -0.212462E+02  0.255E-01    3.80       0.0  T
   2    -21.2462910 -0.708571E-04  0.154E-01    3.77       1.0  T
   3    -21.2462939 -0.291400E-05  0.413E-02    3.74       1.0  T
   4    -21.2462981 -0.413579E-05  0.115E-02    3.74       2.4  T
   5    -21.2462984 -0.297081E-06  0.471E-03    3.75       5.9  T
   6    -21.2462984 -0.212280E-07  0.164E-03    3.75      16.9  T
   7    -21.2462984 -0.155333E-08  0.570E-04    3.75      48.7  T
   8    -21.2462984 -0.627505E-09  0.193E-04    3.75     143.5  T
     SCC iter.                  ...        0 min,  0.004 sec
     gradient                   ...        0 min,  0.002 sec
 * total energy  :   -21.0373531 Eh     change       -0.4472962E-02 Eh
   gradient norm :     0.0190718 Eh/α   predicted    -0.4295263E-02 (  -3.97%)
   displ. norm   :     0.2448510 α      lambda       -0.1442945E-02
   maximum displ.:     0.1698424 α      in ANC's #2, #3, #6, ...

........................................................................
.............................. CYCLE    4 ..............................
........................................................................

 iter      E             dE          RMSdq      gap      omega  full diag
   1    -21.2456280 -0.212456E+02  0.105E-01    3.72       0.0  T
   2    -21.2456320 -0.400197E-05  0.620E-02    3.72       1.0  T
   3    -21.2456314  0.600741E-06  0.150E-02    3.71       1.8  T
   4    -21.2456328 -0.145390E-05  0.341E-03    3.72       8.1  T
   5    -21.2456329 -0.174842E-07  0.150E-03    3.72      18.5  T
   6    -21.2456329 -0.131324E-08  0.370E-04    3.72      74.9  T
   7    -21.2456329 -0.139327E-09  0.138E-04    3.72     200.8  T
     SCC iter.                  ...        0 min,  0.003 sec
     gradient                   ...        0 min,  0.002 sec
 * total energy  :   -21.0382786 Eh     change       -0.9254982E-03 Eh
   gradient norm :     0.0117441 Eh/α   predicted    -0.7647282E-03 ( -17.37%)
   displ. norm   :     0.3122390 α      lambda       -0.1052419E-02
   maximum displ.:     0.2123928 α      in ANC's #3, #2, #6, ...

........................................................................
.............................. CYCLE    5 ..............................
........................................................................

 iter      E             dE          RMSdq      gap      omega  full diag
   1    -21.2410347 -0.212410E+02  0.131E-01    3.67       0.0  T
   2    -21.2410493 -0.146460E-04  0.770E-02    3.70       1.0  T
   3    -21.2410494 -0.658186E-07  0.210E-02    3.70       1.3  T
   4    -21.2410503 -0.907248E-06  0.410E-03    3.71       6.8  T
   5    -21.2410503 -0.537256E-07  0.205E-03    3.71      13.5  T
   6    -21.2410503 -0.137376E-08  0.423E-04    3.70      65.5  T
   7    -21.2410503 -0.511562E-09  0.175E-04    3.70     158.6  T
     SCC iter.                  ...        0 min,  0.003 sec
     gradient                   ...        0 min,  0.002 sec
 * total energy  :   -21.0388861 Eh     change       -0.6074349E-03 Eh
   gradient norm :     0.0167513 Eh/α   predicted    -0.5775075E-03 (  -4.93%)
   displ. norm   :     0.2013442 α      lambda       -0.7190548E-03
   maximum displ.:     0.1541489 α      in ANC's #3, #2, #4, ...

........................................................................
.............................. CYCLE    6 ..............................
........................................................................

 iter      E             dE          RMSdq      gap      omega  full diag
   1    -21.2443413 -0.212443E+02  0.802E-02    3.71       0.0  T
   2    -21.2443433 -0.199573E-05  0.480E-02    3.72       1.0  T
   3    -21.2443431  0.143151E-06  0.887E-03    3.72       3.1  T
   4    -21.2443437 -0.535892E-06  0.256E-03    3.72      10.8  T
   5    -21.2443437 -0.108398E-07  0.107E-03    3.72      25.9  T
   6    -21.2443437 -0.172837E-08  0.469E-04    3.72      59.2  T
   7    -21.2443437 -0.366249E-09  0.158E-04    3.72     175.9  T
     SCC iter.                  ...        0 min,  0.003 sec
     gradient                   ...        0 min,  0.002 sec
 * total energy  :   -21.0393943 Eh     change       -0.5081926E-03 Eh
   gradient norm :     0.0149375 Eh/α   predicted    -0.3741009E-03 ( -26.39%)
   displ. norm   :     0.2563433 α      lambda       -0.8838862E-03
   maximum displ.:     0.2035258 α      in ANC's #3, #4, #6, ...

........................................................................
.............................. CYCLE    7 ..............................
........................................................................

 iter      E             dE          RMSdq      gap      omega  full diag
   1    -21.2479321 -0.212479E+02  0.117E-01    3.71       0.0  T
   2    -21.2479375 -0.539496E-05  0.697E-02    3.72       1.0  T
   3    -21.2479379 -0.382419E-06  0.126E-02    3.72       2.2  T
   4    -21.2479385 -0.592240E-06  0.408E-03    3.72       6.8  T
   5    -21.2479385 -0.191659E-07  0.173E-03    3.72      16.0  T
   6    -21.2479385 -0.242224E-08  0.489E-04    3.72      56.8  T
   7    -21.2479385 -0.301014E-09  0.148E-04    3.72     187.9  T
     SCC iter.                  ...        0 min,  0.003 sec
     gradient                   ...        0 min,  0.002 sec
 * total energy  :   -21.0399364 Eh     change       -0.5421428E-03 Eh
   gradient norm :     0.0097784 Eh/α   predicted    -0.4709836E-03 ( -13.13%)
   displ. norm   :     0.3782292 α      lambda       -0.6988104E-03
   maximum displ.:     0.2709910 α      in ANC's #3, #2, #1, ...

........................................................................
.............................. CYCLE    8 ..............................
........................................................................

 iter      E             dE          RMSdq      gap      omega  full diag
   1    -21.2452702 -0.212453E+02  0.149E-01    3.70       0.0  T
   2    -21.2452816 -0.113906E-04  0.881E-02    3.71       1.0  T
   3    -21.2452820 -0.450082E-06  0.164E-02    3.71       1.7  T
   4    -21.2452825 -0.483397E-06  0.448E-03    3.72       6.2  T
   5    -21.2452826 -0.578856E-07  0.254E-03    3.71      10.9  T
   6    -21.2452826 -0.909515E-08  0.782E-04    3.71      35.5  T
   7    -21.2452826 -0.555556E-09  0.208E-04    3.71     133.3  T
     SCC iter.                  ...        0 min,  0.003 sec
     gradient                   ...        0 min,  0.002 sec
 * total energy  :   -21.0402475 Eh     change       -0.3111277E-03 Eh
   gradient norm :     0.0181349 Eh/α   predicted    -0.3994035E-03 (  28.37%)
   displ. norm   :     0.1034649 α      lambda       -0.5834479E-03
   maximum displ.:     0.0716614 α      in ANC's #1, #4, #7, ...

........................................................................
.............................. CYCLE    9 ..............................
........................................................................

 iter      E             dE          RMSdq      gap      omega  full diag
   1    -21.2521845 -0.212522E+02  0.791E-02    3.74       0.0  T
   2    -21.2521917 -0.720679E-05  0.448E-02    3.73       1.0  T
   3    -21.2521920 -0.325330E-06  0.136E-02    3.73       2.0  T
   4    -21.2521922 -0.204722E-06  0.338E-03    3.73       8.2  T
   5    -21.2521922 -0.221211E-07  0.173E-03    3.73      16.0  T
   6    -21.2521922 -0.240682E-08  0.494E-04    3.73      56.1  T
   7    -21.2521922 -0.444917E-09  0.191E-04    3.73     145.3  T
     SCC iter.                  ...        0 min,  0.003 sec
     gradient                   ...        0 min,  0.002 sec
 * total energy  :   -21.0404945 Eh     change       -0.2469874E-03 Eh
   gradient norm :     0.0175913 Eh/α   predicted    -0.2948469E-03 (  19.38%)
   displ. norm   :     0.1957729 α      lambda       -0.4509275E-03
   maximum displ.:     0.1402804 α      in ANC's #3, #6, #4, ...

........................................................................
.............................. CYCLE   10 ..............................
........................................................................

 iter      E             dE          RMSdq      gap      omega  full diag
   1    -21.2501332 -0.212501E+02  0.883E-02    3.77       0.0  T
   2    -21.2501355 -0.235223E-05  0.523E-02    3.76       1.0  T
   3    -21.2501356 -0.545660E-07  0.870E-03    3.77       3.2  T
   4    -21.2501360 -0.429115E-06  0.283E-03    3.76       9.8  T
   5    -21.2501360 -0.132214E-07  0.145E-03    3.76      19.1  T
   6    -21.2501360 -0.207981E-08  0.463E-04    3.76      59.9  T
   7    -21.2501360 -0.445333E-09  0.169E-04    3.76     163.6  T
     SCC iter.                  ...        0 min,  0.003 sec
     gradient                   ...        0 min,  0.002 sec
 * total energy  :   -21.0407890 Eh     change       -0.2944651E-03 Eh
   gradient norm :     0.0090969 Eh/α   predicted    -0.2341041E-03 ( -20.50%)
   displ. norm   :     0.2975521 α      lambda       -0.3829031E-03
   maximum displ.:     0.1591043 α      in ANC's #3, #2, #1, ...

........................................................................
.............................. CYCLE   11 ..............................
........................................................................

 iter      E             dE          RMSdq      gap      omega  full diag
   1    -21.2472097 -0.212472E+02  0.121E-01    3.77       0.0  T
   2    -21.2472128 -0.310854E-05  0.710E-02    3.77       1.0  T
   3    -21.2472131 -0.319831E-06  0.924E-03    3.77       3.0  T
   4    -21.2472135 -0.366023E-06  0.352E-03    3.77       7.9  T
   5    -21.2472135 -0.976717E-08  0.167E-03    3.77      16.6  T
   6    -21.2472135 -0.384533E-08  0.428E-04    3.77      64.8  T
   7    -21.2472135 -0.364249E-09  0.175E-04    3.77     158.2  T
     SCC iter.                  ...        0 min,  0.003 sec
     gradient                   ...        0 min,  0.002 sec
 * total energy  :   -21.0409497 Eh     change       -0.1607422E-03 Eh
   gradient norm :     0.0108049 Eh/α   predicted    -0.2083984E-03 (  29.65%)
   displ. norm   :     0.1154224 α      lambda       -0.3311877E-03
   maximum displ.:     0.0752779 α      in ANC's #1, #6, #5, ...

........................................................................
.............................. CYCLE   12 ..............................
........................................................................

 iter      E             dE          RMSdq      gap      omega  full diag
   1    -21.2486820 -0.212487E+02  0.605E-02    3.79       0.0  T
   2    -21.2486865 -0.445924E-05  0.340E-02    3.79       1.0  T
   3    -21.2486865  0.229225E-07  0.143E-02    3.80       1.9  T
   4    -21.2486869 -0.454445E-06  0.248E-03    3.79      11.2  T
   5    -21.2486870 -0.276791E-07  0.108E-03    3.79      25.7  T
   6    -21.2486870 -0.427782E-09  0.313E-04    3.79      88.5  T
   7    -21.2486870 -0.134236E-09  0.951E-05    3.79     291.6  T
     SCC iter.                  ...        0 min,  0.003 sec
     gradient                   ...        0 min,  0.002 sec
 * total energy  :   -21.0411624 Eh     change       -0.2126279E-03 Eh
   gradient norm :     0.0059419 Eh/α   predicted    -0.1678004E-03 ( -21.08%)
   displ. norm   :     0.1699708 α      lambda       -0.2293489E-03
   maximum displ.:     0.1468983 α      in ANC's #1, #4, #22, ...

........................................................................
.............................. CYCLE   13 ..............................
........................................................................

 iter      E             dE          RMSdq      gap      omega  full diag
   1    -21.2514687 -0.212515E+02  0.739E-02    3.79       0.0  T
   2    -21.2514697 -0.993324E-06  0.431E-02    3.79       1.0  T
   3    -21.2514699 -0.145113E-06  0.468E-03    3.79       5.9  T
   4    -21.2514699 -0.620970E-07  0.188E-03    3.79      14.8  T
   5    -21.2514699 -0.303599E-08  0.906E-04    3.79      30.6  T
   6    -21.2514699 -0.153301E-08  0.251E-04    3.79     110.6  T
     SCC iter.                  ...        0 min,  0.003 sec
     gradient                   ...        0 min,  0.002 sec
 * total energy  :   -21.0412701 Eh     change       -0.1077602E-03 Eh
   gradient norm :     0.0058824 Eh/α   predicted    -0.1179861E-03 (   9.49%)
   displ. norm   :     0.2837818 α      lambda       -0.1728121E-03
   maximum displ.:     0.1804405 α      in ANC's #1, #3, #6, ...

........................................................................
.............................. CYCLE   14 ..............................
........................................................................

 iter      E             dE          RMSdq      gap      omega  full diag
   1    -21.2478304 -0.212478E+02  0.116E-01    3.76       0.0  T
   2    -21.2478335 -0.310848E-05  0.688E-02    3.77       1.0  T
   3    -21.2478337 -0.174629E-06  0.832E-03    3.78       3.3  T
   4    -21.2478340 -0.349399E-06  0.321E-03    3.78       8.6  T
   5    -21.2478341 -0.285235E-07  0.172E-03    3.78      16.2  T
   6    -21.2478341 -0.259032E-08  0.528E-04    3.78      52.5  T
   7    -21.2478341 -0.363240E-09  0.130E-04    3.78     213.5  T
     SCC iter.                  ...        0 min,  0.003 sec
     gradient                   ...        0 min,  0.002 sec
 * total energy  :   -21.0412845 Eh     change       -0.1437091E-04 Eh
   gradient norm :     0.0090508 Eh/α   predicted    -0.9336986E-04 ( 549.71%)
   displ. norm   :     0.0966237 α      lambda       -0.1770963E-03
   maximum displ.:     0.0464053 α      in ANC's #1, #3, #4, ...

........................................................................
.............................. CYCLE   15 ..............................
........................................................................

 iter      E             dE          RMSdq      gap      omega  full diag
   1    -21.2516735 -0.212517E+02  0.568E-02    3.84       0.0  T
   2    -21.2516763 -0.282658E-05  0.340E-02    3.83       1.0  T
   3    -21.2516760  0.243762E-06  0.135E-02    3.83       2.1  T
   4    -21.2516768 -0.814402E-06  0.188E-03    3.83      14.8  T
   5    -21.2516769 -0.336196E-08  0.103E-03    3.83      26.9  T
   6    -21.2516769 -0.752845E-09  0.339E-04    3.83      81.7  T
   7    -21.2516769 -0.108002E-09  0.834E-05    3.83     332.4  T
     SCC iter.                  ...        0 min,  0.003 sec
     gradient                   ...        0 min,  0.002 sec
 * total energy  :   -21.0413384 Eh     change       -0.5389239E-04 Eh
   gradient norm :     0.0046018 Eh/α   predicted    -0.8937346E-04 (  65.84%)
   displ. norm   :     0.0362541 α      lambda       -0.7319156E-04
   maximum displ.:     0.0185562 α      in ANC's #3, #7, #2, ...

........................................................................
.............................. CYCLE   16 ..............................
........................................................................

 iter      E             dE          RMSdq      gap      omega  full diag
   1    -21.2513321 -0.212513E+02  0.366E-02    3.78       0.0  T
   2    -21.2513334 -0.136348E-05  0.215E-02    3.78       1.3  T
   3    -21.2513334  0.625945E-07  0.955E-03    3.78       2.9  T
   4    -21.2513337 -0.344516E-06  0.127E-03    3.78      21.8  T
   5    -21.2513337 -0.104905E-08  0.699E-04    3.78      39.7  T
   6    -21.2513337 -0.339423E-09  0.220E-04    3.78     125.8  T
     SCC iter.                  ...        0 min,  0.006 sec
     gradient                   ...        0 min,  0.006 sec
 * total energy  :   -21.0413647 Eh     change       -0.2632180E-04 Eh
   gradient norm :     0.0045502 Eh/α   predicted    -0.3664382E-04 (  39.21%)
   displ. norm   :     0.0683840 α      lambda       -0.3098736E-04
   maximum displ.:     0.0464755 α      in ANC's #1, #3, #6, ...

........................................................................
.............................. CYCLE   17 ..............................
........................................................................

 iter      E             dE          RMSdq      gap      omega  full diag
   1    -21.2510139 -0.212510E+02  0.272E-02    3.79       0.0  T
   2    -21.2510144 -0.486411E-06  0.160E-02    3.79       1.7  T
   3    -21.2510144 -0.115795E-07  0.338E-03    3.79       8.2  T
   4    -21.2510145 -0.239119E-07  0.897E-04    3.79      30.9  T
   5    -21.2510145 -0.403261E-08  0.487E-04    3.79      56.9  T
     SCC iter.                  ...        0 min,  0.005 sec
     gradient                   ...        0 min,  0.002 sec
 * total energy  :   -21.0413850 Eh     change       -0.2027311E-04 Eh
   gradient norm :     0.0027641 Eh/α   predicted    -0.1556512E-04 ( -23.22%)
   displ. norm   :     0.1022428 α      lambda       -0.3174595E-04
   maximum displ.:     0.0694458 α      in ANC's #1, #3, #6, ...

........................................................................
.............................. CYCLE   18 ..............................
........................................................................

 iter      E             dE          RMSdq      gap      omega  full diag
   1    -21.2504479 -0.212504E+02  0.496E-02    3.79       0.0  T
   2    -21.2504481 -0.208603E-06  0.293E-02    3.79       1.0  T
   3    -21.2504482 -0.995461E-07  0.196E-03    3.79      14.2  T
   4    -21.2504482 -0.335545E-08  0.110E-03    3.79      25.2  T
   5    -21.2504482 -0.752728E-09  0.350E-04    3.79      79.1  T
   6    -21.2504482 -0.285930E-09  0.737E-05    3.79     376.4  T
     SCC iter.                  ...        0 min,  0.006 sec
     gradient                   ...        0 min,  0.005 sec
 * total energy  :   -21.0414050 Eh     change       -0.2000346E-04 Eh
   gradient norm :     0.0030378 Eh/α   predicted    -0.1603826E-04 ( -19.82%)
   displ. norm   :     0.0886595 α      lambda       -0.3667526E-04
   maximum displ.:     0.0655410 α      in ANC's #1, #6, #4, ...

........................................................................
.............................. CYCLE   19 ..............................
........................................................................

 iter      E             dE          RMSdq      gap      omega  full diag
   1    -21.2508563 -0.212509E+02  0.503E-02    3.79       0.0  T
   2    -21.2508567 -0.376969E-06  0.295E-02    3.79       1.0  T
   3    -21.2508568 -0.112329E-06  0.233E-03    3.79      11.9  T
   4    -21.2508568 -0.721250E-08  0.133E-03    3.79      20.8  T
   5    -21.2508568 -0.114779E-08  0.677E-04    3.79      41.0  T
   6    -21.2508568 -0.109492E-08  0.776E-05    3.79     357.5  T
     SCC iter.                  ...        0 min,  0.006 sec
     gradient                   ...        0 min,  0.002 sec
 * total energy  :   -21.0414343 Eh     change       -0.2932027E-04 Eh
   gradient norm :     0.0024086 Eh/α   predicted    -0.1848104E-04 ( -36.97%)
   displ. norm   :     0.1525966 α      lambda       -0.6944159E-04
   maximum displ.:     0.1064382 α      in ANC's #1, #6, #4, ...

........................................................................
.............................. CYCLE   20 ..............................
........................................................................

 iter      E             dE          RMSdq      gap      omega  full diag
   1    -21.2515525 -0.212516E+02  0.989E-02    3.77       0.0  T
   2    -21.2515540 -0.155908E-05  0.578E-02    3.77       1.0  T
   3    -21.2515544 -0.382790E-06  0.569E-03    3.77       4.9  T
   4    -21.2515545 -0.992858E-07  0.289E-03    3.77       9.6  T
   5    -21.2515545 -0.108786E-07  0.153E-03    3.77      18.1  T
   6    -21.2515545 -0.362621E-08  0.205E-04    3.77     135.3  T
   7    -21.2515545 -0.574758E-10  0.864E-05    3.77     321.1  T
     SCC iter.                  ...        0 min,  0.007 sec
     gradient                   ...        0 min,  0.002 sec
 * total energy  :   -21.0414819 Eh     change       -0.4762801E-04 Eh
   gradient norm :     0.0040022 Eh/α   predicted    -0.3553122E-04 ( -25.40%)
   displ. norm   :     0.1051210 α      lambda       -0.5072691E-04
   maximum displ.:     0.0640587 α      in ANC's #1, #4, #6, ...
 * RMSD in coord.:     0.7843950 α      energy gain  -0.2592505E-01 Eh

generating ANC from model Hessian ...
Using Lindh-Hessian (1995)
 Shifting diagonal of input Hessian by   4.340658709634763E-003
 Lowest  eigenvalues of input Hessian
    0.000000    0.000000    0.000000    0.000000    0.000000    0.000000
    0.010000    0.013624    0.016454    0.018495    0.023524    0.024795
    0.050235    0.059377    0.064070    0.070716    0.081390    0.097881
 Highest eigenvalues
    1.174363    1.233670    1.376700    1.475092    1.767829    2.361028
 

........................................................................
.............................. CYCLE   21 ..............................
........................................................................

 iter      E             dE          RMSdq      gap      omega  full diag
   1    -21.2522514 -0.212523E+02  0.741E-02    3.77       0.0  T
   2    -21.2522522 -0.794066E-06  0.435E-02    3.76       1.0  T
   3    -21.2522524 -0.232983E-06  0.387E-03    3.76       7.2  T
   4    -21.2522524 -0.375433E-07  0.212E-03    3.76      13.1  T
   5    -21.2522524 -0.416710E-08  0.103E-03    3.76      27.0  T
   6    -21.2522524 -0.167178E-08  0.212E-04    3.76     131.1  T
   7    -21.2522524 -0.109686E-09  0.815E-05    3.76     340.4  T
     SCC iter.                  ...        0 min,  0.003 sec
     gradient                   ...        0 min,  0.007 sec
 * total energy  :   -21.0415184 Eh     change       -0.3648227E-04 Eh
   gradient norm :     0.0045924 Eh/α   predicted     0.0000000E+00 (-100.00%)
   displ. norm   :     0.0371581 α      lambda       -0.4880588E-04
   maximum displ.:     0.0223083 α      in ANC's #4, #2, #3, ...

........................................................................
.............................. CYCLE   22 ..............................
........................................................................

 iter      E             dE          RMSdq      gap      omega  full diag
   1    -21.2517292 -0.212517E+02  0.230E-02    3.78       0.0  T
   2    -21.2517295 -0.274875E-06  0.132E-02    3.77       2.1  T
   3    -21.2517295 -0.100061E-07  0.275E-03    3.77      10.1  T
   4    -21.2517295 -0.186610E-07  0.711E-04    3.77      39.0  T
   5    -21.2517295 -0.145878E-08  0.325E-04    3.77      85.3  T
     SCC iter.                  ...        0 min,  0.002 sec
     gradient                   ...        0 min,  0.002 sec
 * total energy  :   -21.0415556 Eh     change       -0.3719585E-04 Eh
   gradient norm :     0.0018306 Eh/α   predicted    -0.2443538E-04 ( -34.31%)
   displ. norm   :     0.1192412 α      lambda       -0.5231786E-04
   maximum displ.:     0.0696419 α      in ANC's #2, #4, #3, ...

........................................................................
.............................. CYCLE   23 ..............................
........................................................................

 iter      E             dE          RMSdq      gap      omega  full diag
   1    -21.2504774 -0.212505E+02  0.686E-02    3.79       0.0  T
   2    -21.2504789 -0.157597E-05  0.397E-02    3.79       1.0  T
   3    -21.2504790 -0.957505E-07  0.643E-03    3.79       4.3  T
   4    -21.2504792 -0.129018E-06  0.209E-03    3.79      13.3  T
   5    -21.2504792 -0.104760E-07  0.947E-04    3.79      29.3  T
   6    -21.2504792 -0.695358E-09  0.331E-04    3.79      83.9  T
     SCC iter.                  ...        0 min,  0.003 sec
     gradient                   ...        0 min,  0.003 sec
 * total energy  :   -21.0415900 Eh     change       -0.3436279E-04 Eh
   gradient norm :     0.0038633 Eh/α   predicted    -0.2632568E-04 ( -23.39%)
   displ. norm   :     0.0284131 α      lambda       -0.1823650E-04
   maximum displ.:     0.0186512 α      in ANC's #1, #3, #2, ...

........................................................................
.............................. CYCLE   24 ..............................
........................................................................

 iter      E             dE          RMSdq      gap      omega  full diag
   1    -21.2507929 -0.212508E+02  0.170E-02    3.79       0.0  T
   2    -21.2507930 -0.602267E-07  0.988E-03    3.78       2.8  T
   3    -21.2507930 -0.975417E-08  0.120E-03    3.78      23.0  T
   4    -21.2507930 -0.485665E-08  0.528E-04    3.78      52.5  T
   5    -21.2507930 -0.474110E-09  0.274E-04    3.78     101.2  T
     SCC iter.                  ...        0 min,  0.002 sec
     gradient                   ...        0 min,  0.002 sec
 * total energy  :   -21.0416058 Eh     change       -0.1581410E-04 Eh
   gradient norm :     0.0026966 Eh/α   predicted    -0.9126276E-05 ( -42.29%)
   displ. norm   :     0.1048183 α      lambda       -0.4777290E-04
   maximum displ.:     0.0599294 α      in ANC's #1, #2, #4, ...

........................................................................
.............................. CYCLE   25 ..............................
........................................................................

 iter      E             dE          RMSdq      gap      omega  full diag
   1    -21.2514063 -0.212514E+02  0.675E-02    3.77       0.0  T
   2    -21.2514069 -0.617138E-06  0.395E-02    3.77       1.0  T
   3    -21.2514070 -0.105508E-06  0.448E-03    3.77       6.2  T
   4    -21.2514071 -0.102029E-06  0.198E-03    3.77      14.0  T
   5    -21.2514071 -0.502906E-08  0.950E-04    3.77      29.2  T
   6    -21.2514071 -0.105505E-08  0.184E-04    3.77     150.8  T
     SCC iter.                  ...        0 min,  0.002 sec
     gradient                   ...        0 min,  0.002 sec
 * total energy  :   -21.0416333 Eh     change       -0.2755632E-04 Eh
   gradient norm :     0.0016932 Eh/α   predicted    -0.2414734E-04 ( -12.37%)
   displ. norm   :     0.0872956 α      lambda       -0.1093790E-04
   maximum displ.:     0.0559628 α      in ANC's #1, #4, #2, ...

........................................................................
.............................. CYCLE   26 ..............................
........................................................................

 iter      E             dE          RMSdq      gap      omega  full diag
   1    -21.2514178 -0.212514E+02  0.498E-02    3.76       0.0  T
   2    -21.2514185 -0.655799E-06  0.289E-02    3.76       1.0  T
   3    -21.2514186 -0.592914E-07  0.404E-03    3.76       6.9  T
   4    -21.2514186 -0.621046E-07  0.154E-03    3.76      18.0  T
   5    -21.2514186 -0.597051E-08  0.822E-04    3.76      33.7  T
   6    -21.2514186 -0.629804E-09  0.169E-04    3.76     163.7  T
     SCC iter.                  ...        0 min,  0.002 sec
     gradient                   ...        0 min,  0.002 sec
 * total energy  :   -21.0416418 Eh     change       -0.8505515E-05 Eh
   gradient norm :     0.0018303 Eh/α   predicted    -0.5487622E-05 ( -35.48%)
   displ. norm   :     0.0410270 α      lambda       -0.6735692E-05
   maximum displ.:     0.0285658 α      in ANC's #1, #4, #5, ...

........................................................................
.............................. CYCLE   27 ..............................
........................................................................

 iter      E             dE          RMSdq      gap      omega  full diag
   1    -21.2516379 -0.212516E+02  0.283E-02    3.76       0.0  T
   2    -21.2516380 -0.863237E-07  0.167E-02    3.76       1.7  T
   3    -21.2516380 -0.368146E-08  0.198E-03    3.76      14.0  T
   4    -21.2516380 -0.296003E-07  0.758E-04    3.76      36.6  T
   5    -21.2516380 -0.358749E-09  0.344E-04    3.76      80.5  T
     SCC iter.                  ...        0 min,  0.002 sec
     gradient                   ...        0 min,  0.002 sec
 * total energy  :   -21.0416484 Eh     change       -0.6516133E-05 Eh
   gradient norm :     0.0007076 Eh/α   predicted    -0.3369655E-05 ( -48.29%)
   displ. norm   :     0.0350176 α      lambda       -0.3357255E-05
   maximum displ.:     0.0257394 α      in ANC's #1, #4, #5, ...

........................................................................
.............................. CYCLE   28 ..............................
........................................................................

 iter      E             dE          RMSdq      gap      omega  full diag
   1    -21.2515959 -0.212516E+02  0.237E-02    3.76       0.0  T
   2    -21.2515959 -0.473499E-07  0.139E-02    3.76       2.0  T
   3    -21.2515959 -0.209642E-07  0.915E-04    3.76      30.3  T
   4    -21.2515959 -0.931379E-09  0.543E-04    3.76      51.1  T
     SCC iter.                  ...        0 min,  0.002 sec
     gradient                   ...        0 min,  0.002 sec
 * total energy  :   -21.0416523 Eh     change       -0.3916286E-05 Eh
   gradient norm :     0.0005232 Eh/α   predicted    -0.1679233E-05 ( -57.12%)
   displ. norm   :     0.0619760 α      lambda       -0.4538867E-05
   maximum displ.:     0.0430590 α      in ANC's #1, #5, #4, ...

........................................................................
.............................. CYCLE   29 ..............................
........................................................................

 iter      E             dE          RMSdq      gap      omega  full diag
   1    -21.2515447 -0.212515E+02  0.401E-02    3.76       0.0  T
   2    -21.2515449 -0.186803E-06  0.234E-02    3.76       1.2  T
   3    -21.2515449 -0.532987E-07  0.196E-03    3.76      14.2  T
   4    -21.2515449 -0.133121E-07  0.107E-03    3.76      26.0  T
   5    -21.2515449 -0.139207E-08  0.524E-04    3.76      52.9  T
   6    -21.2515449 -0.455596E-09  0.796E-05    3.76     348.3  T
     SCC iter.                  ...        0 min,  0.002 sec
     gradient                   ...        0 min,  0.002 sec
 * total energy  :   -21.0416572 Eh     change       -0.4876521E-05 Eh
   gradient norm :     0.0008301 Eh/α   predicted    -0.2274909E-05 ( -53.35%)
   displ. norm   :     0.0500296 α      lambda       -0.3021184E-05
   maximum displ.:     0.0275087 α      in ANC's #1, #5, #2, ...

........................................................................
.............................. CYCLE   30 ..............................
........................................................................

 iter      E             dE          RMSdq      gap      omega  full diag
   1    -21.2515457 -0.212515E+02  0.298E-02    3.76       0.0  T
   2    -21.2515458 -0.154805E-06  0.174E-02    3.76       1.6  T
   3    -21.2515459 -0.310973E-07  0.152E-03    3.76      18.3  T
   4    -21.2515459 -0.525500E-08  0.751E-04    3.76      36.9  T
   5    -21.2515459 -0.464453E-09  0.358E-04    3.76      77.5  T
     SCC iter.                  ...        0 min,  0.002 sec
     gradient                   ...        0 min,  0.002 sec
 * total energy  :   -21.0416600 Eh     change       -0.2812207E-05 Eh
   gradient norm :     0.0006560 Eh/α   predicted    -0.1511275E-05 ( -46.26%)
   displ. norm   :     0.0308351 α      lambda       -0.1357308E-05
   maximum displ.:     0.0174473 α      in ANC's #4, #1, #5, ...

........................................................................
.............................. CYCLE   31 ..............................
........................................................................

 iter      E             dE          RMSdq      gap      omega  full diag
   1    -21.2513579 -0.212514E+02  0.241E-02    3.76       0.0  T
   2    -21.2513579 -0.877588E-07  0.140E-02    3.76       2.0  T
   3    -21.2513579  0.530055E-08  0.222E-03    3.76      12.5  T
   4    -21.2513580 -0.371359E-07  0.703E-04    3.76      39.4  T
   5    -21.2513580 -0.440576E-09  0.335E-04    3.76      82.9  T
     SCC iter.                  ...        0 min,  0.002 sec
     gradient                   ...        0 min,  0.002 sec
 * total energy  :   -21.0416607 Eh     change       -0.6890939E-06 Eh
   gradient norm :     0.0010242 Eh/α   predicted    -0.6781272E-06 (  -1.59%)
   displ. norm   :     0.0200358 α      lambda       -0.1297235E-05
   maximum displ.:     0.0136424 α      in ANC's #1, #2, #3, ...

........................................................................
.............................. CYCLE   32 ..............................
........................................................................

 iter      E             dE          RMSdq      gap      omega  full diag
   1    -21.2516218 -0.212516E+02  0.114E-02    3.77       0.0  T
   2    -21.2516218 -0.668021E-07  0.669E-03    3.77       4.1  T
   3    -21.2516218  0.151105E-07  0.239E-03    3.77      11.6  T
   4    -21.2516219 -0.317983E-07  0.325E-04    3.77      85.3  T
   5    -21.2516219 -0.484164E-10  0.149E-04    3.77     186.5  T
     SCC iter.                  ...        0 min,  0.002 sec
     gradient                   ...        0 min,  0.005 sec
 * total energy  :   -21.0416612 Eh     change       -0.5542632E-06 Eh
   gradient norm :     0.0004121 Eh/α   predicted    -0.6481129E-06 (  16.93%)
   displ. norm   :     0.0080468 α      lambda       -0.2419333E-06
   maximum displ.:     0.0058733 α      in ANC's #2, #3, #1, ...

........................................................................
.............................. CYCLE   33 ..............................
........................................................................

 iter      E             dE          RMSdq      gap      omega  full diag
   1    -21.2515583 -0.212516E+02  0.333E-03    3.76       0.0  T
   2    -21.2515583 -0.446911E-08  0.199E-03    3.76      13.9  T
   3    -21.2515583  0.149173E-08  0.633E-04    3.76      43.8  T
   4    -21.2515583 -0.257704E-08  0.853E-05    3.76     325.2  T
     SCC iter.                  ...        0 min,  0.003 sec
     gradient                   ...        0 min,  0.003 sec
 * total energy  :   -21.0416614 Eh     change       -0.1864394E-06 Eh
   gradient norm :     0.0000615 Eh/α   predicted    -0.1197435E-06 ( -35.77%)
   displ. norm   :     0.0021997 α      lambda       -0.1505867E-07
   maximum displ.:     0.0011563 α      in ANC's #4, #2, #1, ...

........................................................................
.............................. CYCLE   34 ..............................
........................................................................

 iter      E             dE          RMSdq      gap      omega  full diag
   1    -21.2515499 -0.212515E+02  0.160E-03    3.76       0.0  T
   2    -21.2515499 -0.219714E-09  0.940E-04    3.76      29.5  T
   3    -21.2515499 -0.988329E-10  0.674E-05    3.76     411.7  T
     SCC iter.                  ...        0 min,  0.008 sec
     gradient                   ...        0 min,  0.004 sec
 * total energy  :   -21.0416614 Eh     change       -0.1599619E-07 Eh
   gradient norm :     0.0000527 Eh/α   predicted    -0.8567397E-08 ( -46.44%)
   displ. norm   :     0.0017431 α      lambda       -0.5399968E-08
   maximum displ.:     0.0010472 α      in ANC's #5, #4, #2, ...

   *** GEOMETRY OPTIMIZATION CONVERGED AFTER 34 ITERATIONS ***

------------------------------------------------------------------------
 total energy gain   :        -0.0261045 Eh      -16.3808 kcal/mol
 total RMSD          :         0.8128364 a0        0.4301 Å
 total power (kW/mol):        -2.0158075 (step) -227.3095 (real)
------------------------------------------------------------------------

 ANCopt (total)                0 d,  0 h,  0 min,  0.302 sec
 optimizer setup                ...        0 min,  0.001 sec (  0.388%)
 model hessian                  ...        0 min,  0.013 sec (  4.274%)
 ANC generation                 ...        0 min,  0.001 sec (  0.325%)
 coordinate transformation      ...        0 min,  0.000 sec (  0.072%)
 single point calculation       ...        0 min,  0.263 sec ( 87.094%)
 optimization log               ...        0 min,  0.002 sec (  0.618%)
 hessian update                 ...        0 min,  0.002 sec (  0.807%)
 rational function              ...        0 min,  0.012 sec (  3.942%)

================
 final structure:
================
13
 xtb: 6.6.0 (8843059)
C           -0.93977390293634        0.55345507451322        1.05460468285850
C            0.57714380407414        0.82004934433290        0.98434028896666
C            1.24865135776255       -0.51439056609866        0.71024746535328
O            1.68996929588782       -1.24638097304047        1.55318754566434
O            1.24445889587414       -0.83383366714793       -0.58865831486709
N            0.97069441169192        1.79550011973106       -0.01326659189188
H           -1.30048141017629        0.19220287719720        0.09292470006947
H           -1.15802472652936       -0.19068521653294        1.81608514597805
H           -1.46409304091275        1.47369788571365        1.30454580356924
H            0.92636382163530        1.17024610432299        1.96208644246308
H            1.67005317303454       -1.69559117524496       -0.72077078481847
H            0.75788343593162        1.44979721425000       -0.94286639389150
H            0.46385488466272        2.66233297800397        0.12774001054629
 
 Bond Distances (Angstroems)
 ---------------------------
C1-C2=1.5418         C1-H7=1.0888         C1-H8=1.0868         C1-H9=1.0882         C2-C1=1.5418         C2-C3=1.5188         
C2-N6=1.4497         C2-H10=1.0957        C3-C2=1.5188         C3-O4=1.2005         C3-O5=1.3376         O4-C3=1.2005         
O5-C3=1.3376         O5-H11=0.9702        N6-C2=1.4497         N6-H12=1.0144        N6-H13=1.0140        H7-C1=1.0888         
H8-C1=1.0868         H9-C1=1.0882         H10-C2=1.0957        H11-O5=0.9702        H12-N6=1.0144        H13-N6=1.0140        
 C  H  Rav=1.0899 sigma=0.0034  Rmin=1.0868  Rmax=1.0957     4
 C  C  Rav=1.5303 sigma=0.0115  Rmin=1.5188  Rmax=1.5418     2
 N  H  Rav=1.0142 sigma=0.0002  Rmin=1.0140  Rmax=1.0144     2
 N  C  Rav=1.4497 sigma=0.0000  Rmin=1.4497  Rmax=1.4497     1
 O  H  Rav=0.9702 sigma=0.0000  Rmin=0.9702  Rmax=0.9702     1
 O  C  Rav=1.2690 sigma=0.0686  Rmin=1.2005  Rmax=1.3376     2
 
 selected bond angles (degree)
 --------------------
H7-C1-C2=110.06                H8-C1-C2=110.36                H8-C1-H7=108.97                H9-C1-C2=109.77                
H9-C1-H7=108.89                H9-C1-H8=108.74                C3-C2-C1=106.94                N6-C2-C1=114.51                
N6-C2-C3=110.30                H10-C2-C1=109.16               H10-C2-C3=107.51               H10-C2-N6=108.21               
O4-C3-C2=124.86                O5-C3-C2=112.56                O5-C3-O4=122.51                H11-O5-C3=110.06               
H12-N6-C2=110.14               H13-N6-C2=110.11               H13-N6-H12=108.30              
 
 selected dihedral angles (degree)
 ---------------------------------
C3-C2-C1-H7=296.75            C3-C2-C1-H8= 57.06            C3-C2-C1-H9=176.90            N6-C2-C1-H7= 59.25            
N6-C2-C1-H8=179.57            N6-C2-C1-H9=299.41            H10-C2-C1-H7=180.72           H10-C2-C1-H8=301.03           
H10-C2-C1-H9= 60.87           O4-C3-C2-C1=265.78            O4-C3-C2-N6=140.68            O4-C3-C2-H10= 22.90           
O5-C3-C2-C1= 82.72            O5-C3-C2-N6=317.62            O5-C3-C2-H10=199.84           H11-O5-C3-C2=180.78           
H11-O5-C3-O4=357.80           H12-N6-C2-C1=295.40           H12-N6-C2-C3= 56.06           H12-N6-C2-H10=173.42          
H13-N6-C2-C1= 54.77           H13-N6-C2-C3=175.43           H13-N6-C2-H10=292.78          
           -------------------------------------------------
          |                Final Singlepoint                |
           -------------------------------------------------

          ...................................................
          :                      SETUP                      :
          :.................................................:
          :  # basis functions                  31          :
          :  # atomic orbitals                  31          :
          :  # shells                           19          :
          :  # electrons                        36          :
          :  max. iterations                   250          :
          :  Hamiltonian                  GFN2-xTB          :
          :  restarted?                      false          :
          :  GBSA solvation                  false          :
          :  PC potential                    false          :
          :  electronic temp.          300.0000000     K    :
          :  accuracy                    1.0000000          :
          :  -> integral cutoff          0.2500000E+02      :
          :  -> integral neglect         0.1000000E-07      :
          :  -> SCF convergence          0.1000000E-05 Eh   :
          :  -> wf. convergence          0.1000000E-03 e    :
          :  Broyden damping             0.4000000          :
          ...................................................

 iter      E             dE          RMSdq      gap      omega  full diag
   1    -21.2515499 -0.212515E+02  0.409E-05    3.76       0.0  T
   2    -21.2515499 -0.122924E-11  0.260E-05    3.76    1067.8  T
   3    -21.2515499 -0.710543E-13  0.101E-05    3.76    2751.1  T

   *** convergence criteria satisfied after 3 iterations ***

         #    Occupation            Energy/Eh            Energy/eV
      -------------------------------------------------------------
         1        2.0000           -0.7497460             -20.4016
       ...           ...                  ...                  ...
        12        2.0000           -0.5019218             -13.6580
        13        2.0000           -0.4916168             -13.3776
        14        2.0000           -0.4810003             -13.0887
        15        2.0000           -0.4785898             -13.0231
        16        2.0000           -0.4596638             -12.5081
        17        2.0000           -0.4211178             -11.4592
        18        2.0000           -0.3776410             -10.2761 (HOMO)
        19                         -0.2393303              -6.5125 (LUMO)
        20                          0.0358456               0.9754
        21                          0.0535051               1.4559
        22                          0.0864861               2.3534
        23                          0.1195211               3.2523
       ...                                ...                  ...
        31                          0.6396480              17.4057
      -------------------------------------------------------------
                  HL-Gap            0.1383107 Eh            3.7636 eV
             Fermi-level           -0.3084856 Eh           -8.3943 eV

 SCC (total)                   0 d,  0 h,  0 min,  0.008 sec
 SCC setup                      ...        0 min,  0.000 sec (  1.101%)
 Dispersion                     ...        0 min,  0.000 sec (  1.517%)
 classical contributions        ...        0 min,  0.000 sec (  1.002%)
 integral evaluation            ...        0 min,  0.001 sec (  6.972%)
 iterations                     ...        0 min,  0.004 sec ( 56.927%)
 molecular gradient             ...        0 min,  0.002 sec ( 31.115%)
 printout                       ...        0 min,  0.000 sec (  1.086%)

         :::::::::::::::::::::::::::::::::::::::::::::::::::::
         ::                     SUMMARY                     ::
         :::::::::::::::::::::::::::::::::::::::::::::::::::::
         :: total energy             -21.041661409311 Eh    ::
         :: gradient norm              0.000052828363 Eh/a0 ::
         :: HOMO-LUMO gap              3.763625459593 eV    ::
         ::.................................................::
         :: SCC energy               -21.251549945132 Eh    ::
         :: -> isotropic ES            0.057988853936 Eh    ::
         :: -> anisotropic ES          0.003540609671 Eh    ::
         :: -> anisotropic XC          0.006358244833 Eh    ::
         :: -> dispersion             -0.007029408348 Eh    ::
         :: repulsion energy           0.209877709012 Eh    ::
         :: add. restraining           0.000000000000 Eh    ::
         :: total charge               0.000000000000 e     ::
         :::::::::::::::::::::::::::::::::::::::::::::::::::::

           -------------------------------------------------
          |                Property Printout                |
           -------------------------------------------------

    * Orbital Energies and Occupations

         #    Occupation            Energy/Eh            Energy/eV
      -------------------------------------------------------------
         1        2.0000           -0.7497460             -20.4016
       ...           ...                  ...                  ...
         6        2.0000           -0.6015120             -16.3680
         7        2.0000           -0.5915262             -16.0962
         8        2.0000           -0.5770935             -15.7035
         9        2.0000           -0.5574231             -15.1683
        10        2.0000           -0.5312593             -14.4563
        11        2.0000           -0.5109070             -13.9025
        12        2.0000           -0.5019218             -13.6580
        13        2.0000           -0.4916168             -13.3776
        14        2.0000           -0.4810003             -13.0887
        15        2.0000           -0.4785898             -13.0231
        16        2.0000           -0.4596638             -12.5081
        17        2.0000           -0.4211178             -11.4592
        18        2.0000           -0.3776410             -10.2761 (HOMO)
        19                         -0.2393303              -6.5125 (LUMO)
        20                          0.0358456               0.9754
        21                          0.0535051               1.4559
        22                          0.0864861               2.3534
        23                          0.1195211               3.2523
        24                          0.1412457               3.8435
        25                          0.1637752               4.4566
        26                          0.1925219               5.2388
        27                          0.2176568               5.9227
        28                          0.2221942               6.0462
        29                          0.2552519               6.9458
       ...                                ...                  ...
        31                          0.6396480              17.4057
      -------------------------------------------------------------
                  HL-Gap            0.1383107 Eh            3.7636 eV
             Fermi-level           -0.3084856 Eh           -8.3943 eV

     #   Z          covCN         q      C6AA      α(0)
     1   6 C        3.756    -0.114    22.735     6.798
     2   6 C        3.782     0.033    20.043     6.378
     3   6 C        2.696     0.358    20.925     7.487
     4   8 O        0.856    -0.403    21.750     6.253
     5   8 O        1.659    -0.368    20.246     6.074
     6   7 N        2.632    -0.341    28.774     7.967
     7   1 H        0.925     0.046     2.372     2.408
     8   1 H        0.925     0.048     2.345     2.395
     9   1 H        0.925     0.048     2.351     2.398
    10   1 H        0.924     0.061     2.191     2.315
    11   1 H        0.804     0.331     0.635     1.252
    12   1 H        0.860     0.156     1.363     1.829
    13   1 H        0.860     0.147     1.421     1.868

 Mol. C6AA /au·bohr⁶  :       1405.038315
 Mol. C8AA /au·bohr⁸  :      29710.924777
 Mol. α(0) /au        :         55.419895


Wiberg/Mayer (AO) data.
largest (>0.10) Wiberg bond orders for each atom

 ---------------------------------------------------------------------------
     #   Z sym  total        # sym  WBO       # sym  WBO       # sym  WBO
 ---------------------------------------------------------------------------
     1   6 C    3.994 --     7 H    0.987     8 H    0.985     9 H    0.983
                             2 C    0.969
     2   6 C    3.987 --     6 N    1.025     1 C    0.969    10 H    0.960
                             3 C    0.952
     3   6 C    3.911 --     4 O    1.775     5 O    1.138     2 C    0.952
     4   8 O    2.044 --     3 C    1.775     5 O    0.175
     5   8 O    2.208 --     3 C    1.138    11 H    0.865     4 O    0.175
     6   7 N    3.011 --     2 C    1.025    13 H    0.963    12 H    0.959
     7   1 H    0.998 --     1 C    0.987
     8   1 H    0.998 --     1 C    0.985
     9   1 H    0.998 --     1 C    0.983
    10   1 H    0.996 --     2 C    0.960
    11   1 H    0.890 --     5 O    0.865
    12   1 H    0.976 --     6 N    0.959
    13   1 H    0.978 --     6 N    0.963
 ---------------------------------------------------------------------------

Topologies differ in total number of bonds
Writing topology from bond orders to xtbtopo.mol

molecular dipole:
                 x           y           z       tot (Debye)
 q only:       -0.544       0.330      -0.629
   full:       -0.863       0.230      -0.776       3.008
molecular quadrupole (traceless):
                xx          xy          yy          xz          yz          zz
 q only:       -1.522      -0.745       3.013      -4.948       4.790      -1.491
  q+dip:       -2.627      -3.155       4.441      -5.728       6.088      -1.814
   full:       -2.302      -2.773       4.321      -5.993       5.909      -2.019

           -------------------------------------------------
          |                Geometry Summary                 |
           -------------------------------------------------

      molecular mass/u    :       89.0933060
   center of mass at/Å    :        0.7978359       0.0817977       0.5829231
  moments of inertia/u·Å² :        0.9924665E+02   0.1715343E+03   0.2023121E+03
rotational constants/cm⁻¹ :        0.1698559E+00   0.9827556E-01   0.8332486E-01

 * 10 selected distances

     #   Z          #   Z                                           value/Å
     3   6 C        4   8 O                                       1.2004665
     3   6 C        5   8 O                                       1.3376165
     2   6 C        6   7 N                                       1.4496918 (max)
     1   6 C        7   1 H                                       1.0887799
     1   6 C        8   1 H                                       1.0868445
     1   6 C        9   1 H                                       1.0882225
     2   6 C       10   1 H                                       1.0957099
     5   8 O       11   1 H                                       0.9701600 (min)
     6   7 N       12   1 H                                       1.0143742
     6   7 N       13   1 H                                       1.0139865

 * 5 distinct bonds (by element types)

   Z      Z             #   av. dist./Å        max./Å        min./Å
   1 H    6 C           4     1.0898892     1.0957099     1.0868445
   1 H    7 N           2     1.0141803     1.0143742     1.0139865
   6 C    7 N           1     1.4496918     1.4496918     1.4496918
   1 H    8 O           1     0.9701600     0.9701600     0.9701600
   6 C    8 O           2     1.2690415     1.3376165     1.2004665


optimized geometry written to: xtbopt.xyz


           -------------------------------------------------
          | TOTAL ENERGY              -21.041661409311 Eh   |
          | GRADIENT NORM               0.000052828363 Eh/α |
          | HOMO-LUMO GAP               3.763625459593 eV   |
           -------------------------------------------------

------------------------------------------------------------------------
 * finished run on 2025/07/30 at 12:16:26.710     
------------------------------------------------------------------------
 total:
 * wall-time:     0 d,  0 h,  0 min,  0.406 sec
 *  cpu-time:     0 d,  0 h,  0 min,  2.402 sec
 * ratio c/w:     5.913 speedup
 SCF:
 * wall-time:     0 d,  0 h,  0 min,  0.030 sec
 *  cpu-time:     0 d,  0 h,  0 min,  0.177 sec
 * ratio c/w:     5.853 speedup
 ANC optimizer:
 * wall-time:     0 d,  0 h,  0 min,  0.311 sec
 *  cpu-time:     0 d,  0 h,  0 min,  1.954 sec
 * ratio c/w:     6.291 speedup

