 Entering Gaussian System
 *********************************************
 Gaussian 98:
 frequency output generated by the xtb code
 *********************************************
                         Standard orientation:
 --------------------------------------------------------------------
  Center     Atomic     Atomic              Coordinates (Angstroms)
  Number     Number      Type              X           Y           Z
 --------------------------------------------------------------------
    1          6             0       -1.399835   -0.594630   -1.196512
    2          6             0       -0.663473   -0.486152    0.137416
    3          6             0        0.774935    0.027685   -0.079175
    4          8             0        1.449902   -0.281844   -1.018111
    5          8             0        1.197453    0.826890    0.895078
    6          7             0       -1.302718    0.372485    1.132549
    7          1             0       -1.562571    0.396710   -1.616591
    8          1             0       -0.795825   -1.166042   -1.895093
    9          1             0       -2.361716   -1.087180   -1.068959
   10          1             0       -0.556148   -1.486174    0.576485
   11          1             0        0.454802    0.942654    1.528592
   12          1             0       -1.655976    1.214467    0.685947
   13          1             0       -2.089527   -0.093265    1.568310
 --------------------------------------------------------------------
     1 basis functions        1 primitive gaussians
     1 alpha electrons        1 beta electrons
 
 Harmonic frequencies (cm**-1), IR intensities (km*mol⁻¹),
 Raman scattering activities (A**4/amu), Raman depolarization ratios,
 reduced masses (AMU), force constants (mDyne/A) and normal coordinates:
                      1                      2                      3
                        a                      a                      a 
 Frequencies --    72.4095               185.7883               246.3250
 Red. masses --    12.5875                 1.4291                10.4694
 Frc consts  --     0.0000                 0.0000                 0.0000
 IR Inten    --     2.4538                 0.7856                18.6977
 Raman Activ --     0.0000                 0.0000                 0.0000
 Depolar     --     0.0000                 0.0000                 0.0000
 Atom AN      X      Y      Z        X      Y      Z        X      Y      Z
   1   6     0.03  -0.36   0.06    -0.03  -0.03  -0.01    -0.52  -0.09   0.11
   2   6    -0.01   0.05   0.05    -0.03   0.07  -0.02     0.04   0.05  -0.22
   3   6    -0.02   0.04   0.01    -0.00   0.01  -0.01     0.11   0.06  -0.10
   4   8    -0.18   0.42  -0.23     0.01  -0.10   0.03     0.48   0.08   0.14
   5   8     0.19  -0.41   0.30     0.05  -0.05   0.01    -0.16  -0.12   0.15
   6   7    -0.05   0.30  -0.19    -0.01   0.08  -0.01     0.17   0.08  -0.15
   7   1    -0.00  -0.14  -0.06    -0.51   0.02   0.25    -0.21  -0.04   0.01
   8   1     0.02  -0.15   0.07     0.26   0.46  -0.16    -0.26  -0.06  -0.04
   9   1     0.02  -0.11   0.05     0.24  -0.51  -0.11    -0.13  -0.01   0.20
  10   1     0.00   0.05   0.10     0.01   0.03   0.00     0.05   0.02  -0.06
  11   1     0.06  -0.10   0.09     0.01   0.01  -0.00    -0.12  -0.02  -0.05
  12   1     0.09   0.10  -0.10     0.01   0.03   0.00    -0.11  -0.05  -0.05
  13   1    -0.09   0.15  -0.11    -0.01   0.03  -0.01     0.17  -0.03   0.12
                      4                      5                      6
                        a                      a                      a 
 Frequencies --   285.3059               337.8705               407.4781
 Red. masses --     2.7824                11.4200                 9.0146
 Frc consts  --     0.0000                 0.0000                 0.0000
 IR Inten    --    26.1191                 8.8169                 6.6757
 Raman Activ --     0.0000                 0.0000                 0.0000
 Depolar     --     0.0000                 0.0000                 0.0000
 Atom AN      X      Y      Z        X      Y      Z        X      Y      Z
   1   6    -0.19   0.00   0.07     0.14   0.05  -0.01    -0.01   0.24   0.33
   2   6     0.04  -0.08  -0.03    -0.02  -0.28   0.08     0.16  -0.33   0.21
   3   6     0.00  -0.03   0.01    -0.05  -0.21   0.03     0.13  -0.19   0.09
   4   8     0.13   0.03   0.08    -0.04   0.14  -0.08     0.02   0.13  -0.10
   5   8    -0.05   0.15  -0.07    -0.54  -0.02  -0.00     0.07   0.04  -0.07
   6   7     0.04  -0.18   0.01     0.50   0.22  -0.01    -0.27   0.02  -0.39
   7   1    -0.08   0.01   0.05     0.07   0.05   0.07     0.01   0.15   0.28
   8   1    -0.11   0.00  -0.03     0.08   0.08  -0.02    -0.11   0.16  -0.07
   9   1    -0.05   0.01   0.08     0.03   0.01  -0.11    -0.02   0.10   0.10
  10   1    -0.01  -0.03  -0.01    -0.09  -0.07   0.05    -0.00  -0.08   0.09
  11   1     0.08  -0.07   0.09    -0.20  -0.10  -0.04     0.01   0.06  -0.04
  12   1     0.56   0.24   0.10     0.20   0.06  -0.06    -0.14  -0.13  -0.31
  13   1    -0.40   0.16  -0.51     0.12   0.20   0.13    -0.06   0.00  -0.08
                      7                      8                      9
                        a                      a                      a 
 Frequencies --   516.0050               540.5157               692.4980
 Red. masses --    12.3838                12.3399                 9.7044
 Frc consts  --     0.0000                 0.0000                 0.0000
 IR Inten    --     5.2246                 6.0743                 1.8998
 Raman Activ --     0.0000                 0.0000                 0.0000
 Depolar     --     0.0000                 0.0000                 0.0000
 Atom AN      X      Y      Z        X      Y      Z        X      Y      Z
   1   6    -0.18  -0.06  -0.22     0.11   0.06   0.16     0.09   0.02   0.13
   2   6    -0.01  -0.21  -0.17     0.36   0.18  -0.10    -0.02  -0.15   0.06
   3   6    -0.09   0.05   0.33     0.10   0.29  -0.07    -0.45   0.44  -0.31
   4   8    -0.40   0.02   0.21    -0.35  -0.39  -0.19     0.08  -0.06   0.30
   5   8     0.31   0.25   0.13    -0.24   0.03   0.35     0.03  -0.17  -0.14
   6   7     0.34  -0.08  -0.27     0.09  -0.08  -0.16     0.09  -0.01  -0.14
   7   1    -0.07  -0.00  -0.03    -0.02   0.01   0.04     0.11   0.06   0.13
   8   1    -0.11  -0.01  -0.12    -0.05  -0.00  -0.01     0.03   0.05   0.00
   9   1    -0.05  -0.00  -0.00     0.04   0.03   0.17    -0.01   0.06  -0.06
  10   1    -0.03  -0.08  -0.10     0.21   0.06  -0.03     0.16  -0.01   0.04
  11   1     0.14   0.13   0.08    -0.19  -0.08  -0.02     0.21  -0.27   0.23
  12   1     0.06  -0.06  -0.11     0.03  -0.02  -0.04     0.01  -0.05  -0.12
  13   1     0.14   0.05   0.09    -0.00  -0.07  -0.15     0.04   0.05   0.06
                     10                     11                     12
                        a                      a                      a 
 Frequencies --   714.6788               805.5366               933.9929
 Red. masses --     3.7339                10.8866                 8.3173
 Frc consts  --     0.0000                 0.0000                 0.0000
 IR Inten    --   186.5039                20.6302                53.2346
 Raman Activ --     0.0000                 0.0000                 0.0000
 Depolar     --     0.0000                 0.0000                 0.0000
 Atom AN      X      Y      Z        X      Y      Z        X      Y      Z
   1   6     0.04   0.01   0.05    -0.18  -0.09  -0.14    -0.04  -0.15  -0.37
   2   6    -0.01  -0.07   0.02    -0.25  -0.33   0.16     0.32  -0.14   0.04
   3   6    -0.22   0.17  -0.11     0.28   0.33  -0.19    -0.05  -0.01   0.01
   4   8     0.01   0.05   0.12     0.12  -0.20  -0.26    -0.03   0.00   0.04
   5   8     0.09  -0.27   0.02     0.14   0.19   0.33    -0.06  -0.05  -0.04
   6   7     0.08  -0.08   0.03    -0.12   0.02   0.10    -0.00   0.33   0.44
   7   1     0.05   0.02   0.04     0.10   0.05   0.07    -0.00   0.05   0.10
   8   1     0.02   0.02   0.01     0.02   0.05  -0.04    -0.22   0.04  -0.34
   9   1    -0.01   0.02  -0.04    -0.11   0.04  -0.28    -0.06   0.07  -0.01
  10   1     0.09  -0.00   0.01    -0.02  -0.06   0.08     0.16   0.00   0.08
  11   1    -0.24   0.70  -0.44    -0.10  -0.04  -0.04     0.05   0.02   0.05
  12   1     0.11   0.01  -0.02     0.09   0.02  -0.04    -0.20  -0.13  -0.17
  13   1    -0.07   0.04  -0.09    -0.07   0.18   0.15    -0.12  -0.09  -0.25
                     13                     14                     15
                        a                      a                      a 
 Frequencies --   959.4830              1004.9086              1085.5671
 Red. masses --     2.8033                 3.4763                 6.0572
 Frc consts  --     0.0000                 0.0000                 0.0000
 IR Inten    --    67.8654                 1.0915                49.2545
 Raman Activ --     0.0000                 0.0000                 0.0000
 Depolar     --     0.0000                 0.0000                 0.0000
 Atom AN      X      Y      Z        X      Y      Z        X      Y      Z
   1   6     0.18  -0.18  -0.11    -0.21  -0.19   0.12    -0.25   0.00  -0.11
   2   6     0.06   0.03  -0.04    -0.07   0.17  -0.06     0.23   0.17   0.13
   3   6    -0.03  -0.03   0.01     0.02  -0.12   0.06     0.17  -0.00   0.23
   4   8    -0.02   0.02   0.03    -0.02   0.02  -0.01    -0.11   0.07   0.13
   5   8     0.01  -0.02  -0.03    -0.02   0.05   0.03    -0.04  -0.14  -0.26
   6   7    -0.20  -0.04  -0.15     0.19  -0.01  -0.15    -0.14  -0.11  -0.02
   7   1     0.04   0.09   0.30     0.27   0.10   0.24     0.06   0.00  -0.08
   8   1    -0.26   0.05  -0.36     0.14   0.13   0.05     0.10   0.03   0.08
   9   1    -0.01   0.12   0.16    -0.17   0.07  -0.44    -0.08  -0.01  -0.25
  10   1     0.04   0.11   0.21     0.10   0.18   0.29     0.50   0.06  -0.04
  11   1    -0.03   0.00  -0.04     0.04   0.04   0.05    -0.12  -0.17  -0.13
  12   1     0.14   0.31   0.45    -0.14   0.04   0.19     0.18  -0.02  -0.14
  13   1     0.12   0.08   0.33     0.09  -0.31  -0.29    -0.04   0.24   0.26
                     16                     17                     18
                        a                      a                      a 
 Frequencies --  1129.7638              1138.6071              1182.9141
 Red. masses --     8.6047                 6.5762                 7.6860
 Frc consts  --     0.0000                 0.0000                 0.0000
 IR Inten    --     8.5244                16.9877                20.3572
 Raman Activ --     0.0000                 0.0000                 0.0000
 Depolar     --     0.0000                 0.0000                 0.0000
 Atom AN      X      Y      Z        X      Y      Z        X      Y      Z
   1   6     0.11  -0.12   0.25     0.09  -0.12   0.22     0.19  -0.14  -0.05
   2   6    -0.15  -0.14  -0.46    -0.08   0.07  -0.41    -0.47   0.39   0.17
   3   6     0.22   0.23   0.20    -0.13  -0.29  -0.07     0.09  -0.01   0.04
   4   8    -0.13   0.05   0.16     0.07  -0.02  -0.13     0.03   0.02  -0.02
   5   8     0.10  -0.09  -0.22    -0.04   0.14   0.18     0.01  -0.00  -0.04
   6   7    -0.03   0.15   0.16    -0.10   0.05   0.17     0.21  -0.25   0.01
   7   1     0.12   0.04   0.19     0.14   0.05   0.19    -0.02   0.05   0.18
   8   1     0.01   0.04  -0.01     0.04   0.05   0.00    -0.17   0.02  -0.23
   9   1    -0.01   0.04  -0.00    -0.02   0.04  -0.05    -0.00   0.10   0.14
  10   1    -0.13  -0.09  -0.23     0.33  -0.03  -0.30     0.02   0.13   0.08
  11   1    -0.24  -0.28  -0.25     0.21   0.23   0.22    -0.07  -0.09  -0.06
  12   1    -0.09   0.01   0.04     0.06  -0.04  -0.15     0.03  -0.26  -0.38
  13   1    -0.07  -0.01  -0.10    -0.07   0.22   0.18    -0.08   0.09  -0.06
                     19                     20                     21
                        a                      a                      a 
 Frequencies --  1252.5507              1271.6454              1312.8808
 Red. masses --     5.3441                 7.7584                 4.5457
 Frc consts  --     0.0000                 0.0000                 0.0000
 IR Inten    --   202.8988               408.6495                44.3027
 Raman Activ --     0.0000                 0.0000                 0.0000
 Depolar     --     0.0000                 0.0000                 0.0000
 Atom AN      X      Y      Z        X      Y      Z        X      Y      Z
   1   6     0.07   0.21  -0.03    -0.05  -0.13   0.00    -0.07   0.03   0.04
   2   6    -0.27  -0.24  -0.15     0.22   0.19   0.18     0.28   0.04  -0.37
   3   6    -0.16  -0.21  -0.06    -0.38  -0.26  -0.21    -0.11  -0.04  -0.06
   4   8     0.01   0.03   0.02     0.04   0.04   0.04    -0.02   0.01   0.03
   5   8     0.19   0.17   0.11     0.26   0.22   0.19     0.06   0.05   0.04
   6   7     0.04   0.08   0.03    -0.02   0.00  -0.02    -0.05  -0.16   0.15
   7   1    -0.10  -0.03  -0.14     0.07   0.01   0.07     0.06   0.01  -0.02
   8   1     0.00  -0.08   0.08     0.00   0.05  -0.06     0.08   0.03   0.07
   9   1     0.10  -0.06   0.17    -0.06   0.03  -0.11     0.01  -0.03  -0.01
  10   1     0.53   0.14   0.31    -0.17  -0.13  -0.32    -0.39   0.24   0.54
  11   1    -0.21  -0.23  -0.19    -0.30  -0.30  -0.28    -0.05  -0.06  -0.04
  12   1    -0.07   0.02   0.07     0.04   0.00  -0.03     0.05  -0.15  -0.22
  13   1    -0.01  -0.06  -0.10     0.02  -0.03  -0.00    -0.10   0.23   0.16
                     22                     23                     24
                        a                      a                      a 
 Frequencies --  1401.9142              1483.6038              1489.2562
 Red. masses --     3.0642                 1.5747                 1.5818
 Frc consts  --     0.0000                 0.0000                 0.0000
 IR Inten    --     7.7055                 2.6239                 5.7450
 Raman Activ --     0.0000                 0.0000                 0.0000
 Depolar     --     0.0000                 0.0000                 0.0000
 Atom AN      X      Y      Z        X      Y      Z        X      Y      Z
   1   6    -0.18  -0.07  -0.38     0.11  -0.19   0.03    -0.18  -0.08   0.09
   2   6    -0.00   0.00   0.04     0.01  -0.05  -0.03    -0.06  -0.02   0.03
   3   6    -0.00   0.01   0.01    -0.00  -0.00   0.00     0.00   0.01   0.01
   4   8     0.01  -0.00  -0.01    -0.00  -0.00  -0.00     0.01  -0.01  -0.01
   5   8    -0.00  -0.01  -0.00     0.00   0.00   0.00    -0.00  -0.00  -0.00
   6   7     0.00   0.01  -0.00    -0.01   0.01   0.01     0.01   0.00  -0.01
   7   1     0.17   0.21   0.41    -0.43  -0.16  -0.17     0.51  -0.10  -0.42
   8   1     0.42  -0.03   0.35     0.33   0.31   0.01     0.12   0.52  -0.30
   9   1     0.03   0.04   0.52    -0.31   0.63   0.08     0.08  -0.10   0.33
  10   1    -0.00  -0.02  -0.05     0.02   0.01   0.04     0.03  -0.01  -0.00
  11   1    -0.00   0.00  -0.00    -0.00  -0.00  -0.00     0.00   0.00   0.00
  12   1    -0.01  -0.00   0.00     0.02   0.00  -0.01    -0.00   0.01   0.01
  13   1    -0.00  -0.00  -0.01     0.01  -0.02   0.00     0.00  -0.01  -0.01
                     25                     26                     27
                        a                      a                      a 
 Frequencies --  1556.7485              1809.2537              2921.1074
 Red. masses --     2.0895                13.3672                 1.7409
 Frc consts  --     0.0000                 0.0000                 0.0000
 IR Inten    --    41.9124               454.1059                22.3969
 Raman Activ --     0.0000                 0.0000                 0.0000
 Depolar     --     0.0000                 0.0000                 0.0000
 Atom AN      X      Y      Z        X      Y      Z        X      Y      Z
   1   6    -0.01  -0.01  -0.00     0.00   0.00   0.00    -0.00  -0.01  -0.00
   2   6     0.06   0.01   0.07     0.03   0.00  -0.02    -0.02   0.24  -0.10
   3   6    -0.02  -0.02  -0.01    -0.44   0.21   0.63     0.00   0.01  -0.00
   4   8     0.01  -0.00  -0.01     0.34  -0.15  -0.47    -0.00  -0.00   0.00
   5   8    -0.00   0.00   0.01     0.03  -0.02  -0.05    -0.00  -0.00   0.00
   6   7     0.21  -0.13  -0.11     0.00  -0.00  -0.01    -0.00   0.00   0.00
   7   1    -0.02  -0.01  -0.02    -0.01  -0.00   0.00    -0.01   0.05  -0.02
   8   1     0.01   0.01   0.00    -0.01  -0.01  -0.00    -0.01   0.00   0.01
   9   1    -0.02   0.03  -0.01    -0.00   0.00  -0.02     0.02   0.01  -0.00
  10   1     0.02  -0.03  -0.05     0.00   0.00   0.01     0.09  -0.88   0.38
  11   1     0.00  -0.01   0.00    -0.06  -0.05  -0.03     0.00   0.00  -0.00
  12   1    -0.58  -0.05   0.36     0.01   0.00  -0.00    -0.01   0.01  -0.00
  13   1    -0.36   0.55  -0.07     0.01  -0.01  -0.00     0.00   0.00   0.00
                     28                     29                     30
                        a                      a                      a 
 Frequencies --  3026.4084              3029.6648              3061.8225
 Red. masses --     1.9391                 1.5250                 1.6935
 Frc consts  --     0.0000                 0.0000                 0.0000
 IR Inten    --    32.5413                25.3748                 6.5540
 Raman Activ --     0.0000                 0.0000                 0.0000
 Depolar     --     0.0000                 0.0000                 0.0000
 Atom AN      X      Y      Z        X      Y      Z        X      Y      Z
   1   6    -0.08  -0.26   0.09     0.21  -0.02   0.02     0.14  -0.12  -0.17
   2   6    -0.00  -0.02   0.01     0.01  -0.00   0.00     0.00  -0.01  -0.01
   3   6    -0.00  -0.00   0.00    -0.00  -0.00   0.00     0.00  -0.00  -0.00
   4   8     0.00   0.00  -0.00    -0.00  -0.00  -0.00    -0.00   0.00   0.00
   5   8    -0.00   0.00   0.00     0.00   0.00  -0.00     0.00   0.00  -0.00
   6   7     0.00   0.00  -0.00    -0.00   0.00  -0.00    -0.00   0.00  -0.00
   7   1    -0.13   0.75  -0.31    -0.04   0.47  -0.20     0.03  -0.06  -0.00
   8   1    -0.03  -0.02   0.03     0.01   0.02   0.02    -0.54   0.51   0.61
   9   1     0.44   0.20  -0.06    -0.72  -0.40   0.11     0.03  -0.01  -0.02
  10   1    -0.00   0.05  -0.02    -0.00   0.01  -0.00    -0.00   0.01  -0.00
  11   1     0.00  -0.00  -0.00    -0.01   0.00   0.01    -0.00   0.00   0.00
  12   1    -0.00  -0.00   0.00     0.00  -0.00   0.00     0.00  -0.00   0.00
  13   1    -0.00  -0.00   0.00     0.00   0.00   0.00     0.00   0.00  -0.00
                     31                     32                     33
                        a                      a                      a 
 Frequencies --  3172.8527              3381.4211              3430.0125
 Red. masses --     1.8546                 1.6549                 1.9406
 Frc consts  --     0.0000                 0.0000                 0.0000
 IR Inten    --   217.9890                 4.8458                 1.8631
 Raman Activ --     0.0000                 0.0000                 0.0000
 Depolar     --     0.0000                 0.0000                 0.0000
 Atom AN      X      Y      Z        X      Y      Z        X      Y      Z
   1   6    -0.00  -0.00  -0.00     0.00   0.00  -0.00    -0.00   0.00   0.00
   2   6     0.00   0.00   0.00     0.01  -0.01   0.00     0.00   0.00  -0.00
   3   6    -0.00  -0.02  -0.03    -0.00  -0.00  -0.00    -0.00   0.00   0.00
   4   8    -0.00   0.00   0.01    -0.00   0.00   0.00     0.00  -0.00  -0.00
   5   8     0.18  -0.02  -0.15    -0.00   0.00   0.00    -0.00  -0.00   0.00
   6   7     0.00  -0.00  -0.00     0.12  -0.17   0.07     0.16   0.16  -0.14
   7   1    -0.00  -0.00   0.00    -0.00   0.00  -0.00     0.00  -0.00   0.00
   8   1     0.00  -0.00  -0.00    -0.00   0.00   0.00    -0.00   0.00   0.00
   9   1     0.01   0.00   0.00    -0.00  -0.00  -0.00    -0.00  -0.00  -0.00
  10   1     0.00  -0.00   0.00    -0.00   0.01  -0.01    -0.00  -0.01   0.00
  11   1    -0.69   0.15   0.66     0.02  -0.00  -0.01     0.01  -0.00  -0.01
  12   1    -0.01   0.01  -0.01    -0.30   0.79  -0.41     0.10  -0.18   0.10
  13   1    -0.02  -0.01   0.00    -0.17  -0.14   0.13    -0.71  -0.44   0.42
