      -----------------------------------------------------------      
     |                   =====================                   |     
     |                           x T B                           |     
     |                   =====================                   |     
     |                         S. Grimme                         |     
     |          Mulliken Center for Theoretical Chemistry        |     
     |                    University of Bonn                     |     
      -----------------------------------------------------------      

   * xtb version 6.6.0 (8843059) compiled by 'stahn@majestix' on 2023-02-09

   xtb is free software: you can redistribute it and/or modify it under
   the terms of the GNU Lesser General Public License as published by
   the Free Software Foundation, either version 3 of the License, or
   (at your option) any later version.
   
   xtb is distributed in the hope that it will be useful,
   but WITHOUT ANY WARRANTY; without even the implied warranty of
   MERCHANTABILITY or FITNESS FOR A PARTICULAR PURPOSE.  See the
   GNU Lesser General Public License for more details.
   
   Cite this work as:
   * C. Bannwarth, E. Caldeweyher, S. Ehlert, A. Hansen, P. Pracht,
     J. Seibert, S. Spicher, S. Grimme, WIREs Comput. Mol. Sci., 2020, 11,
     e01493. DOI: 10.1002/wcms.1493
   
   for GFN2-xTB:
   * C. Bannwarth, S. Ehlert and S. Grimme., J. Chem. Theory Comput., 2019,
     15, 1652-1671. DOI: 10.1021/acs.jctc.8b01176
   for GFN1-xTB:
   * S. Grimme, C. Bannwarth, P. Shushkov, J. Chem. Theory Comput., 2017,
     13, 1989-2009. DOI: 10.1021/acs.jctc.7b00118
   for GFN0-xTB:
   * P. Pracht, E. Caldeweyher, S. Ehlert, S. Grimme, ChemRxiv, 2019, preprint.
     DOI: 10.26434/chemrxiv.8326202.v1
   for GFN-FF:
   * S. Spicher and S. Grimme, Angew. Chem. Int. Ed., 2020, 59, 15665-15673.
     DOI: 10.1002/anie.202004239
   
   for ALPB and GBSA implicit solvation:
   * S. Ehlert, M. Stahn, S. Spicher, S. Grimme, J. Chem. Theory Comput.,
     2021, 17, 4250-4261. DOI: 10.1021/acs.jctc.1c00471
   
   for DFT-D4:
   * E. Caldeweyher, C. Bannwarth and S. Grimme, J. Chem. Phys., 2017,
     147, 034112. DOI: 10.1063/1.4993215
   * E. Caldeweyher, S. Ehlert, A. Hansen, H. Neugebauer, S. Spicher,
     C. Bannwarth and S. Grimme, J. Chem. Phys., 2019, 150, 154122.
     DOI: 10.1063/1.5090222
   * E. Caldeweyher, J.-M. Mewes, S. Ehlert and S. Grimme, Phys. Chem. Chem. Phys.
     2020, 22, 8499-8512. DOI: 10.1039/D0CP00502A
   
   for sTDA-xTB:
   * S. Grimme and C. Bannwarth, J. Chem. Phys., 2016, 145, 054103.
     DOI: 10.1063/1.4959605
   
   in the mass-spec context:
   * V. Asgeirsson, C. Bauer and S. Grimme, Chem. Sci., 2017, 8, 4879.
     DOI: 10.1039/c7sc00601b
   * J. Koopman and S. Grimme, ACS Omega 2019, 4, 12, 15120-15133.
     DOI: 10.1021/acsomega.9b02011
   
   for metadynamics refer to:
   * S. Grimme, J. Chem. Theory Comput., 2019, 155, 2847-2862
     DOI: 10.1021/acs.jctc.9b00143
   
   for SPH calculations refer to:
   * S. Spicher and S. Grimme, J. Chem. Theory Comput., 2021, 17, 1701-1714
     DOI: 10.1021/acs.jctc.0c01306
   
   with help from (in alphabetical order)
   P. Atkinson, C. Bannwarth, F. Bohle, G. Brandenburg, E. Caldeweyher
   M. Checinski, S. Dohm, S. Ehlert, S. Ehrlich, I. Gerasimov, C. Hölzer
   A. Katbashev, J. Koopman, C. Lavigne, S. Lehtola, F. März, M. Müller,
   F. Musil, H. Neugebauer, J. Pisarek, C. Plett, P. Pracht, F. Pultar,
   J. Seibert, P. Shushkov, S. Spicher, M. Stahn, M. Steiner, T. Strunk,
   J. Stückrath, T. Rose, and J. Unsleber
   
 * started run on 2025/07/30 at 12:34:41.295     

           -------------------------------------------------
          |                Calculation Setup                |
           -------------------------------------------------

          program call               : xtb --gfn2 in.xyz --ohess vtight
          coordinate file            : in.xyz
          omp threads                :                     8

   ID    Z sym.   atoms
    1    6 C      1-3
    2    8 O      4, 5
    3    7 N      6
    4    1 H      7-13

           -------------------------------------------------
          |                 G F N 2 - x T B                 |
           -------------------------------------------------

        Reference                      10.1021/acs.jctc.8b01176
      * Hamiltonian:
        H0-scaling (s, p, d)           1.850000    2.230000    2.230000
        zeta-weighting                 0.500000
      * Dispersion:
        s8                             2.700000
        a1                             0.520000
        a2                             5.000000
        s9                             5.000000
      * Repulsion:
        kExp                           1.500000    1.000000
        rExp                           1.000000
      * Coulomb:
        alpha                          2.000000
        third order                    shell-resolved
        anisotropic                    true
        a3                             3.000000
        a5                             4.000000
        cn-shift                       1.200000
        cn-exp                         4.000000
        max-rad                        5.000000


          ...................................................
          :                      SETUP                      :
          :.................................................:
          :  # basis functions                  31          :
          :  # atomic orbitals                  31          :
          :  # shells                           19          :
          :  # electrons                        36          :
          :  max. iterations                   250          :
          :  Hamiltonian                  GFN2-xTB          :
          :  restarted?                      false          :
          :  GBSA solvation                  false          :
          :  PC potential                    false          :
          :  electronic temp.          300.0000000     K    :
          :  accuracy                    1.0000000          :
          :  -> integral cutoff          0.2500000E+02      :
          :  -> integral neglect         0.1000000E-07      :
          :  -> SCF convergence          0.1000000E-05 Eh   :
          :  -> wf. convergence          0.1000000E-03 e    :
          :  Broyden damping             0.4000000          :
          ...................................................

 iter      E             dE          RMSdq      gap      omega  full diag
   1    -21.2033063 -0.212033E+02  0.418E+00    4.47       0.0  T
   2    -21.2448908 -0.415845E-01  0.212E+00    4.53       1.0  T
   3    -21.2468375 -0.194671E-02  0.117E+00    4.93       1.0  T
   4    -21.2488622 -0.202465E-02  0.210E-01    4.69       1.0  T
   5    -21.2490460 -0.183851E-03  0.722E-02    4.71       1.0  T
   6    -21.2490489 -0.292038E-05  0.240E-02    4.70       1.2  T
   7    -21.2490513 -0.233273E-05  0.631E-03    4.70       4.4  T
   8    -21.2490514 -0.851103E-07  0.300E-03    4.70       9.2  T
   9    -21.2490514 -0.158642E-07  0.915E-04    4.70      30.3  T
  10    -21.2490514 -0.787939E-09  0.291E-04    4.70      95.5  T

   *** convergence criteria satisfied after 10 iterations ***

         #    Occupation            Energy/Eh            Energy/eV
      -------------------------------------------------------------
         1        2.0000           -0.7381409             -20.0858
       ...           ...                  ...                  ...
        12        2.0000           -0.5076331             -13.8134
        13        2.0000           -0.4975699             -13.5396
        14        2.0000           -0.4769772             -12.9792
        15        2.0000           -0.4722305             -12.8500
        16        2.0000           -0.4648742             -12.6499
        17        2.0000           -0.4237133             -11.5298
        18        2.0000           -0.4013854             -10.9223 (HOMO)
        19                         -0.2287252              -6.2239 (LUMO)
        20                          0.0037770               0.1028
        21                          0.0582124               1.5840
        22                          0.0740094               2.0139
        23                          0.1080008               2.9389
       ...                                ...                  ...
        31                          0.6541892              17.8014
      -------------------------------------------------------------
                  HL-Gap            0.1726602 Eh            4.6983 eV
             Fermi-level           -0.3150553 Eh           -8.5731 eV

 SCC (total)                   0 d,  0 h,  0 min,  0.014 sec
 SCC setup                      ...        0 min,  0.000 sec (  1.152%)
 Dispersion                     ...        0 min,  0.000 sec (  1.371%)
 classical contributions        ...        0 min,  0.000 sec (  0.629%)
 integral evaluation            ...        0 min,  0.001 sec (  8.184%)
 iterations                     ...        0 min,  0.008 sec ( 59.578%)
 molecular gradient             ...        0 min,  0.004 sec ( 28.420%)
 printout                       ...        0 min,  0.000 sec (  0.509%)

         :::::::::::::::::::::::::::::::::::::::::::::::::::::
         ::                     SUMMARY                     ::
         :::::::::::::::::::::::::::::::::::::::::::::::::::::
         :: total energy             -21.040953249788 Eh    ::
         :: gradient norm              0.000081444515 Eh/a0 ::
         :: HOMO-LUMO gap              4.698323429652 eV    ::
         ::.................................................::
         :: SCC energy               -21.249051377319 Eh    ::
         :: -> isotropic ES            0.057744002730 Eh    ::
         :: -> anisotropic ES          0.001454598498 Eh    ::
         :: -> anisotropic XC          0.005970427120 Eh    ::
         :: -> dispersion             -0.007023145919 Eh    ::
         :: repulsion energy           0.208089330356 Eh    ::
         :: add. restraining           0.000000000000 Eh    ::
         :: total charge              -0.000000000000 e     ::
         :::::::::::::::::::::::::::::::::::::::::::::::::::::

      ----------------------------------------------------------- 
     |                   =====================                   |
     |                        A N C O P T                        |
     |                   =====================                   |
     |               Approximate Normal Coordinate               |
     |                Rational Function Optimizer                |
      ----------------------------------------------------------- 

          ...................................................
          :                      SETUP                      :
          :.................................................:
          :   optimization level         verytight          :
          :   max. optcycles                   260          :
          :   ANC micro-cycles                  20          :
          :   degrees of freedom                33          :
          :.................................................:
          :   RF solver                   davidson          :
          :   write xtbopt.log                true          :
          :   linear?                        false          :
          :   energy convergence         0.1000000E-06 Eh   :
          :   grad. convergence          0.2000000E-03 Eh/α :
          :   maxmium RF displ.          1.0000000          :
          :   Hlow (freq-cutoff)         0.1000000E-01      :
          :   Hmax (freq-cutoff)         5.0000000          :
          :   S6 in model hess.         20.0000000          :
          ...................................................

generating ANC from model Hessian ...
Using Lindh-Hessian (1995)
 Shifting diagonal of input Hessian by   2.681873245246559E-003
 Lowest  eigenvalues of input Hessian
    0.000000    0.000000    0.000000    0.000000    0.000000    0.000000
    0.010000    0.012355    0.015722    0.021380    0.022289    0.028542
    0.051007    0.055827    0.058826    0.064944    0.075228    0.077282
 Highest eigenvalues
    1.191298    1.312404    1.346802    1.454838    1.730637    2.356817
 

........................................................................
.............................. CYCLE    1 ..............................
........................................................................

 iter      E             dE          RMSdq      gap      omega  full diag
   1    -21.2490514 -0.212491E+02  0.834E-05    4.70       0.0  T
   2    -21.2490514 -0.304254E-10  0.429E-05    4.70     646.6  T
   3    -21.2490514 -0.574829E-11  0.269E-05    4.70    1031.8  T
     SCC iter.                  ...        0 min,  0.002 sec
     gradient                   ...        0 min,  0.002 sec
 * total energy  :   -21.0409532 Eh     change       -0.1492246E-09 Eh
   gradient norm :     0.0000829 Eh/α   predicted     0.0000000E+00 (-100.00%)
   displ. norm   :     0.0006450 α      lambda       -0.1228456E-07
   maximum displ.:     0.0002949 α      in ANC's #2, #4, #5, ...

   *** GEOMETRY OPTIMIZATION CONVERGED AFTER 1 ITERATIONS ***

------------------------------------------------------------------------
 total energy gain   :        -0.0000000 Eh       -0.0000 kcal/mol
 total RMSD          :         0.0000000 a0        0.0000 Å
 total power (kW/mol):        -0.0000004 (step)   -0.0000 (real)
------------------------------------------------------------------------

 ANCopt (total)                0 d,  0 h,  0 min,  0.010 sec
 optimizer setup                ...        0 min,  0.000 sec (  0.746%)
 model hessian                  ...        0 min,  0.003 sec ( 30.423%)
 ANC generation                 ...        0 min,  0.000 sec (  2.283%)
 coordinate transformation      ...        0 min,  0.000 sec (  0.050%)
 single point calculation       ...        0 min,  0.006 sec ( 63.981%)
 optimization log               ...        0 min,  0.000 sec (  0.614%)
 hessian update                 ...        0 min,  0.000 sec (  0.019%)
 rational function              ...        0 min,  0.000 sec (  1.149%)

================
 final structure:
================
13
 xtb: 6.6.0 (8843059)
C           -1.39982800000000       -0.59463500000000       -1.19651800000000
C           -0.66347100000000       -0.48615600000000        0.13741300000000
C            0.77493500000000        0.02768900000000       -0.07917200000000
O            1.44990700000000       -0.28183500000000       -1.01810600000000
O            1.19744500000000        0.82689500000000        0.89508400000000
N           -1.30272400000000        0.37247600000000        1.13254500000000
H           -1.56256700000000        0.39670500000000       -1.61659600000000
H           -0.79581200000000       -1.16604300000000       -1.89509800000000
H           -2.36170600000000       -1.08719000000000       -1.06896900000000
H           -0.55614200000000       -1.48617800000000        0.57648000000000
H            0.45479200000000        0.94265400000000        1.52859500000000
H           -1.65598500000000        1.21445700000000        0.68594300000000
H           -2.08953200000000       -0.09327900000000        1.56830200000000
 
 Bond Distances (Angstroems)
 ---------------------------
C1-C2=1.5275         C1-H7=1.0889         C1-H8=1.0860         C1-H9=1.0882         C2-C1=1.5275         C2-C3=1.5427         
C2-N6=1.4616         C2-H10=1.0974        C3-C2=1.5427         C3-O4=1.1971         C3-O5=1.3291         O4-C3=1.1971         
O5-C3=1.3291         O5-H11=0.9830        N6-C2=1.4616         N6-H12=1.0165        N6-H13=1.0129        H7-C1=1.0889         
H8-C1=1.0860         H9-C1=1.0882         H10-C2=1.0974        H11-O5=0.9830        H12-N6=1.0165        H13-N6=1.0129        
 C  H  Rav=1.0901 sigma=0.0044  Rmin=1.0860  Rmax=1.0974     4
 C  C  Rav=1.5351 sigma=0.0076  Rmin=1.5275  Rmax=1.5427     2
 N  H  Rav=1.0147 sigma=0.0018  Rmin=1.0129  Rmax=1.0165     2
 N  C  Rav=1.4616 sigma=0.0000  Rmin=1.4616  Rmax=1.4616     1
 O  H  Rav=0.9830 sigma=0.0000  Rmin=0.9830  Rmax=0.9830     1
 O  C  Rav=1.2631 sigma=0.0660  Rmin=1.1971  Rmax=1.3291     2
 
 selected bond angles (degree)
 --------------------
H7-C1-C2=110.14                H8-C1-C2=109.33                H8-C1-H7=108.30                H9-C1-C2=110.85                
H9-C1-H7=108.98                H9-C1-H8=109.20                C3-C2-C1=110.52                N6-C2-C1=115.18                
N6-C2-C3=107.92                H10-C2-C1=109.38               H10-C2-C3=105.57               H10-C2-N6=107.80               
O4-C3-C2=123.35                O5-C3-C2=113.19                O5-C3-O4=123.45                H11-O5-C3=107.64               
H12-N6-C2=109.85               H13-N6-C2=111.26               H13-N6-H12=107.46              
 
 selected dihedral angles (degree)
 ---------------------------------
C3-C2-C1-H7=292.66            C3-C2-C1-H8= 51.54            C3-C2-C1-H9=171.97            N6-C2-C1-H7= 55.27            
N6-C2-C1-H8=174.16            N6-C2-C1-H9=294.59            H10-C2-C1-H7=176.84           H10-C2-C1-H8=295.72           
H10-C2-C1-H9= 56.15           O4-C3-C2-C1=322.92            O4-C3-C2-N6=196.16            O4-C3-C2-H10= 81.10           
O5-C3-C2-C1=144.18            O5-C3-C2-N6= 17.42            O5-C3-C2-H10=262.35           H11-O5-C3-C2=357.32           
H11-O5-C3-O4=178.58           H12-N6-C2-C1=318.43           H12-N6-C2-C3= 82.42           H12-N6-C2-H10=196.01          
H13-N6-C2-C1= 77.28           H13-N6-C2-C3=201.28           H13-N6-C2-H10=314.87          
           -------------------------------------------------
          |                Final Singlepoint                |
           -------------------------------------------------

          ...................................................
          :                      SETUP                      :
          :.................................................:
          :  # basis functions                  31          :
          :  # atomic orbitals                  31          :
          :  # shells                           19          :
          :  # electrons                        36          :
          :  max. iterations                   250          :
          :  Hamiltonian                  GFN2-xTB          :
          :  restarted?                      false          :
          :  GBSA solvation                  false          :
          :  PC potential                    false          :
          :  electronic temp.          300.0000000     K    :
          :  accuracy                    1.0000000          :
          :  -> integral cutoff          0.2500000E+02      :
          :  -> integral neglect         0.1000000E-07      :
          :  -> SCF convergence          0.1000000E-05 Eh   :
          :  -> wf. convergence          0.1000000E-03 e    :
          :  Broyden damping             0.4000000          :
          ...................................................

 iter      E             dE          RMSdq      gap      omega  full diag
   1    -21.2490514 -0.212491E+02  0.699E-06    4.70       0.0  T
   2    -21.2490514 -0.532907E-13  0.433E-06    4.70    6410.7  T
   3    -21.2490514 -0.142109E-13  0.220E-06    4.70   12582.1  T

   *** convergence criteria satisfied after 3 iterations ***

         #    Occupation            Energy/Eh            Energy/eV
      -------------------------------------------------------------
         1        2.0000           -0.7381421             -20.0859
       ...           ...                  ...                  ...
        12        2.0000           -0.5076337             -13.8134
        13        2.0000           -0.4975701             -13.5396
        14        2.0000           -0.4769784             -12.9792
        15        2.0000           -0.4722313             -12.8501
        16        2.0000           -0.4648756             -12.6499
        17        2.0000           -0.4237138             -11.5298
        18        2.0000           -0.4013863             -10.9223 (HOMO)
        19                         -0.2287266              -6.2240 (LUMO)
        20                          0.0037780               0.1028
        21                          0.0582125               1.5840
        22                          0.0740097               2.0139
        23                          0.1080009               2.9389
       ...                                ...                  ...
        31                          0.6541872              17.8013
      -------------------------------------------------------------
                  HL-Gap            0.1726597 Eh            4.6983 eV
             Fermi-level           -0.3150564 Eh           -8.5731 eV

 SCC (total)                   0 d,  0 h,  0 min,  0.004 sec
 SCC setup                      ...        0 min,  0.000 sec (  2.110%)
 Dispersion                     ...        0 min,  0.000 sec (  3.414%)
 classical contributions        ...        0 min,  0.000 sec (  2.302%)
 integral evaluation            ...        0 min,  0.001 sec ( 14.514%)
 iterations                     ...        0 min,  0.001 sec ( 29.829%)
 molecular gradient             ...        0 min,  0.002 sec ( 45.951%)
 printout                       ...        0 min,  0.000 sec (  1.469%)

         :::::::::::::::::::::::::::::::::::::::::::::::::::::
         ::                     SUMMARY                     ::
         :::::::::::::::::::::::::::::::::::::::::::::::::::::
         :: total energy             -21.040953249938 Eh    ::
         :: gradient norm              0.000082702239 Eh/a0 ::
         :: HOMO-LUMO gap              4.698310829495 eV    ::
         ::.................................................::
         :: SCC energy               -21.249051377469 Eh    ::
         :: -> isotropic ES            0.057746531967 Eh    ::
         :: -> anisotropic ES          0.001454842986 Eh    ::
         :: -> anisotropic XC          0.005970548128 Eh    ::
         :: -> dispersion             -0.007023147105 Eh    ::
         :: repulsion energy           0.208089330356 Eh    ::
         :: add. restraining           0.000000000000 Eh    ::
         :: total charge               0.000000000000 e     ::
         :::::::::::::::::::::::::::::::::::::::::::::::::::::

           ------------------------------------------------- 
          |                Numerical Hessian                |
           ------------------------------------------------- 
step length          :   0.00500
SCC accuracy         :   0.30000
Hessian scale factor :   1.00000
frozen atoms in %    :   0.00000    0
RMS gradient         :   0.00008
estimated CPU  time      0.03 min
estimated wall time      0.00 min

writing file <hessian>.

 projected vibrational frequencies (cm⁻¹)
eigval :       -0.00    -0.00    -0.00    -0.00     0.00     0.00
eigval :       72.41   185.79   246.33   285.31   337.87   407.48
eigval :      516.01   540.52   692.50   714.68   805.54   933.99
eigval :      959.48  1004.91  1085.57  1129.76  1138.61  1182.91
eigval :     1252.55  1271.65  1312.88  1401.91  1483.60  1489.26
eigval :     1556.75  1809.25  2921.11  3026.41  3029.66  3061.82
eigval :     3172.85  3381.42  3430.01
           -------------------------------------------------
          |                Property Printout                |
           -------------------------------------------------

    * Orbital Energies and Occupations

         #    Occupation            Energy/Eh            Energy/eV
      -------------------------------------------------------------
         1        2.0000           -0.7381421             -20.0859
       ...           ...                  ...                  ...
         6        2.0000           -0.6145703             -16.7233
         7        2.0000           -0.5891205             -16.0308
         8        2.0000           -0.5682038             -15.4616
         9        2.0000           -0.5557242             -15.1220
        10        2.0000           -0.5428115             -14.7707
        11        2.0000           -0.5220430             -14.2055
        12        2.0000           -0.5076337             -13.8134
        13        2.0000           -0.4975701             -13.5396
        14        2.0000           -0.4769784             -12.9792
        15        2.0000           -0.4722313             -12.8501
        16        2.0000           -0.4648756             -12.6499
        17        2.0000           -0.4237138             -11.5298
        18        2.0000           -0.4013863             -10.9223 (HOMO)
        19                         -0.2287266              -6.2240 (LUMO)
        20                          0.0037780               0.1028
        21                          0.0582125               1.5840
        22                          0.0740097               2.0139
        23                          0.1080009               2.9389
        24                          0.1291458               3.5142
        25                          0.1524062               4.1472
        26                          0.1743028               4.7430
        27                          0.2059063               5.6030
        28                          0.2288680               6.2278
        29                          0.2542736               6.9191
       ...                                ...                  ...
        31                          0.6541872              17.8013
      -------------------------------------------------------------
                  HL-Gap            0.1726598 Eh            4.6983 eV
             Fermi-level           -0.3150564 Eh           -8.5731 eV

     #   Z          covCN         q      C6AA      α(0)
     1   6 C        3.753    -0.115    22.765     6.804
     2   6 C        3.779     0.014    20.360     6.428
     3   6 C        2.690     0.347    21.112     7.520
     4   8 O        0.856    -0.376    21.202     6.173
     5   8 O        1.657    -0.367    20.230     6.072
     6   7 N        2.631    -0.353    29.098     8.011
     7   1 H        0.925     0.043     2.409     2.427
     8   1 H        0.925     0.066     2.130     2.282
     9   1 H        0.925     0.042     2.423     2.434
    10   1 H        0.924     0.056     2.248     2.345
    11   1 H        0.803     0.341     0.611     1.228
    12   1 H        0.860     0.152     1.389     1.846
    13   1 H        0.860     0.151     1.391     1.848

 Mol. C6AA /au·bohr⁶  :       1404.608299
 Mol. C8AA /au·bohr⁸  :      29733.994499
 Mol. α(0) /au        :         55.418526


Wiberg/Mayer (AO) data.
largest (>0.10) Wiberg bond orders for each atom

 ---------------------------------------------------------------------------
     #   Z sym  total        # sym  WBO       # sym  WBO       # sym  WBO
 ---------------------------------------------------------------------------
     1   6 C    3.993 --     2 C    0.997     9 H    0.986     7 H    0.985
                             8 H    0.980
     2   6 C    3.981 --     6 N    1.013     1 C    0.997    10 H    0.947
                             3 C    0.929
     3   6 C    3.922 --     4 O    1.785     5 O    1.165     2 C    0.929
     4   8 O    2.067 --     3 C    1.785     5 O    0.172
     5   8 O    2.223 --     3 C    1.165    11 H    0.822     4 O    0.172
     6   7 N    3.055 --     2 C    1.013    13 H    0.962    12 H    0.962
     7   1 H    0.998 --     1 C    0.985
     8   1 H    0.996 --     1 C    0.980
     9   1 H    0.998 --     1 C    0.986
    10   1 H    0.997 --     2 C    0.947
    11   1 H    0.884 --     5 O    0.822
    12   1 H    0.977 --     6 N    0.962
    13   1 H    0.977 --     6 N    0.962
 ---------------------------------------------------------------------------

Topologies differ in total number of bonds
Writing topology from bond orders to xtbtopo.mol

molecular dipole:
                 x           y           z       tot (Debye)
 q only:       -1.450       0.084       0.796
   full:       -2.024       0.037       0.836       5.566
molecular quadrupole (traceless):
                xx          xy          yy          xz          yz          zz
 q only:       -2.766      -0.343       1.580       1.771       0.545       1.186
  q+dip:       -1.651      -0.698       2.507       1.660      -1.327      -0.855
   full:       -2.054      -1.071       2.692       1.750      -1.343      -0.638

           -------------------------------------------------
          |                Geometry Summary                 |
           -------------------------------------------------

      molecular mass/u    :       89.0933060
   center of mass at/Å    :        0.0000001       0.0000027       0.0000033
  moments of inertia/u·Å² :        0.1031533E+03   0.1441744E+03   0.2312499E+03
rotational constants/cm⁻¹ :        0.1634231E+00   0.1169253E+00   0.7289789E-01

 * 11 selected distances

     #   Z          #   Z                                           value/Å
     1   6 C        2   6 C                                       1.5275345 (max)
     3   6 C        4   8 O                                       1.1970754
     3   6 C        5   8 O                                       1.3290673
     2   6 C        6   7 N                                       1.4615681
     1   6 C        7   1 H                                       1.0889007
     1   6 C        8   1 H                                       1.0859819
     1   6 C        9   1 H                                       1.0881584
     2   6 C       10   1 H                                       1.0974259
     5   8 O       11   1 H                                       0.9829903 (min)
     6   7 N       12   1 H                                       1.0164541
     6   7 N       13   1 H                                       1.0128568

 * 6 distinct bonds (by element types)

   Z      Z             #   av. dist./Å        max./Å        min./Å
   1 H    6 C           4     1.0901167     1.0974259     1.0859819
   6 C    6 C           1     1.5275345     1.5275345     1.5275345
   1 H    7 N           2     1.0146554     1.0164541     1.0128568
   6 C    7 N           1     1.4615681     1.4615681     1.4615681
   1 H    8 O           1     0.9829903     0.9829903     0.9829903
   6 C    8 O           2     1.2630714     1.3290673     1.1970754

           -------------------------------------------------
          |               Frequency Printout                |
           -------------------------------------------------
 projected vibrational frequencies (cm⁻¹)
eigval :       -0.00    -0.00    -0.00    -0.00     0.00     0.00
eigval :       72.41   185.79   246.33   285.31   337.87   407.48
eigval :      516.01   540.52   692.50   714.68   805.54   933.99
eigval :      959.48  1004.91  1085.57  1129.76  1138.61  1182.91
eigval :     1252.55  1271.65  1312.88  1401.91  1483.60  1489.26
eigval :     1556.75  1809.25  2921.11  3026.41  3029.66  3061.82
eigval :     3172.85  3381.42  3430.01
 reduced masses (amu)
   1: 10.95   2: 13.08   3: 12.89   4: 14.01   5: 13.15   6: 11.26   7: 12.59   8:  1.43
   9: 10.47  10:  2.78  11: 11.42  12:  9.01  13: 12.38  14: 12.34  15:  9.70  16:  3.73
  17: 10.89  18:  8.32  19:  2.80  20:  3.48  21:  6.06  22:  8.60  23:  6.58  24:  7.69
  25:  5.34  26:  7.76  27:  4.55  28:  3.06  29:  1.57  30:  1.58  31:  2.09  32: 13.37
  33:  1.74  34:  1.94  35:  1.53  36:  1.69  37:  1.85  38:  1.65  39:  1.94
 IR intensities (km·mol⁻¹)
   1:  3.71   2:  3.86   3:  1.42   4:  5.36   5:  0.07   6:  0.87   7:  2.45   8:  0.79
   9: 18.70  10: 26.12  11:  8.82  12:  6.68  13:  5.22  14:  6.07  15:  1.90  16:186.50
  17: 20.63  18: 53.23  19: 67.87  20:  1.09  21: 49.25  22:  8.52  23: 16.99  24: 20.36
  25:202.90  26:408.65  27: 44.30  28:  7.71  29:  2.62  30:  5.75  31: 41.91  32:454.11
  33: 22.40  34: 32.54  35: 25.37  36:  6.55  37:217.99  38:  4.85  39:  1.86
 Raman intensities (amu)
   1:  0.00   2:  0.00   3:  0.00   4:  0.00   5:  0.00   6:  0.00   7:  0.00   8:  0.00
   9:  0.00  10:  0.00  11:  0.00  12:  0.00  13:  0.00  14:  0.00  15:  0.00  16:  0.00
  17:  0.00  18:  0.00  19:  0.00  20:  0.00  21:  0.00  22:  0.00  23:  0.00  24:  0.00
  25:  0.00  26:  0.00  27:  0.00  28:  0.00  29:  0.00  30:  0.00  31:  0.00  32:  0.00
  33:  0.00  34:  0.00  35:  0.00  36:  0.00  37:  0.00  38:  0.00  39:  0.00
 output can be read by thermo (or use thermo option).
 writing <g98.out> molden fake output.
 recommended (thermochemical) frequency scaling factor: 1.0
           -------------------------------------------------
          |             Thermodynamic Functions             |
           -------------------------------------------------

Molecule has no symmetry elements
It seems to be the C1 point group
c1  symmetry found (for desy threshold:  0.10E+00) used in thermo

          ...................................................
          :                      SETUP                      :
          :.................................................:
          :  # frequencies                          33      :
          :  # imaginary freq.                       0      :
          :  linear?                             false      :
          :  only rotor calc.                    false      :
          :  symmetry                               c1      :
          :  rotational number                       1      :
          :  scaling factor                  1.0000000      :
          :  rotor cutoff                   50.0000000 cm⁻¹ :
          :  imag. cutoff                  -20.0000000 cm⁻¹ :
          :.................................................:

    mode    ω/cm⁻¹     T·S(HO)/kcal·mol⁻¹    T·S(FR)/kcal·mol⁻¹   T·S(vib)
   ------------------------------------------------------------------------
       1     72.41    -1.21847 ( 81.48%)    -0.94642 ( 18.52%)    -1.16807
       2    185.79    -0.67663 ( 99.48%)    -0.66754 (  0.52%)    -0.67659
       3    246.33    -0.52377 ( 99.83%)    -0.58403 (  0.17%)    -0.52387
       4    285.31    -0.44772 ( 99.91%)    -0.54052 (  0.09%)    -0.44780
   ------------------------------------------------------------------------

   temp. (K)  partition function   enthalpy   heat capacity  entropy
                                   cal/mol     cal/K/mol   cal/K/mol   J/K/mol
 298.15  VIB   21.7                 2486.154     17.915     14.283
         ROT  0.142E+06              888.752      2.981     26.552
         INT  0.307E+07             3374.906     20.896     40.835
         TR   0.814E+27             1481.254      4.968     39.356
         TOT                        4856.1601    25.8642    80.1911   335.5196

       T/K    H(0)-H(T)+PV         H(T)/Eh          T*S/Eh         G(T)/Eh
   ------------------------------------------------------------------------
    298.15    0.773878E-02    0.112172E+00    0.381014E-01    0.740704E-01
   ------------------------------------------------------------------------

         :::::::::::::::::::::::::::::::::::::::::::::::::::::
         ::                  THERMODYNAMIC                  ::
         :::::::::::::::::::::::::::::::::::::::::::::::::::::
         :: total free energy         -20.966882843722 Eh   ::
         ::.................................................::
         :: total energy              -21.040953249938 Eh   ::
         :: zero point energy           0.104433006603 Eh   ::
         :: G(RRHO) w/o ZPVE           -0.030362600386 Eh   ::
         :: G(RRHO) contrib.            0.074070406217 Eh   ::
         :::::::::::::::::::::::::::::::::::::::::::::::::::::

optimized geometry written to: xtbopt.xyz


           -------------------------------------------------
          | TOTAL ENERGY              -21.040953249938 Eh   |
          | TOTAL ENTHALPY            -20.928781459561 Eh   |
          | TOTAL FREE ENERGY         -20.966882843722 Eh   |
          | GRADIENT NORM               0.000082711220 Eh/α |
          | HOMO-LUMO GAP               4.698311312388 eV   |
           -------------------------------------------------

------------------------------------------------------------------------
 * finished run on 2025/07/30 at 12:34:41.431     
------------------------------------------------------------------------
 total:
 * wall-time:     0 d,  0 h,  0 min,  0.135 sec
 *  cpu-time:     0 d,  0 h,  0 min,  0.970 sec
 * ratio c/w:     7.163 speedup
 SCF:
 * wall-time:     0 d,  0 h,  0 min,  0.014 sec
 *  cpu-time:     0 d,  0 h,  0 min,  0.085 sec
 * ratio c/w:     5.948 speedup
 ANC optimizer:
 * wall-time:     0 d,  0 h,  0 min,  0.014 sec
 *  cpu-time:     0 d,  0 h,  0 min,  0.091 sec
 * ratio c/w:     6.417 speedup
 analytical hessian:
 * wall-time:     0 d,  0 h,  0 min,  0.098 sec
 *  cpu-time:     0 d,  0 h,  0 min,  0.737 sec
 * ratio c/w:     7.490 speedup

