13
 energy: -21.040953249937 gnorm: 0.000082893542 xtb: 6.6.0 (8843059)
C           -1.39982800000000       -0.59463500000000       -1.19651800000000
C           -0.66347100000000       -0.48615600000000        0.13741300000000
C            0.77493500000000        0.02768900000000       -0.07917200000000
O            1.44990700000000       -0.28183500000000       -1.01810600000000
O            1.19744500000000        0.82689500000000        0.89508400000000
N           -1.30272400000000        0.37247600000000        1.13254500000000
H           -1.56256700000000        0.39670500000000       -1.61659600000000
H           -0.79581200000000       -1.16604300000000       -1.89509800000000
H           -2.36170600000000       -1.08719000000000       -1.06896900000000
H           -0.55614200000000       -1.48617800000000        0.57648000000000
H            0.45479200000000        0.94265400000000        1.52859500000000
H           -1.65598500000000        1.21445700000000        0.68594300000000
H           -2.08953200000000       -0.09327900000000        1.56830200000000
