      -----------------------------------------------------------      
     |                   =====================                   |     
     |                           x T B                           |     
     |                   =====================                   |     
     |                         S. Grimme                         |     
     |          Mulliken Center for Theoretical Chemistry        |     
     |                    University of Bonn                     |     
      -----------------------------------------------------------      

   * xtb version 6.6.0 (8843059) compiled by 'stahn@majestix' on 2023-02-09

   xtb is free software: you can redistribute it and/or modify it under
   the terms of the GNU Lesser General Public License as published by
   the Free Software Foundation, either version 3 of the License, or
   (at your option) any later version.
   
   xtb is distributed in the hope that it will be useful,
   but WITHOUT ANY WARRANTY; without even the implied warranty of
   MERCHANTABILITY or FITNESS FOR A PARTICULAR PURPOSE.  See the
   GNU Lesser General Public License for more details.
   
   Cite this work as:
   * C. Bannwarth, E. Caldeweyher, S. Ehlert, A. Hansen, P. Pracht,
     J. Seibert, S. Spicher, S. Grimme, WIREs Comput. Mol. Sci., 2020, 11,
     e01493. DOI: 10.1002/wcms.1493
   
   for GFN2-xTB:
   * C. Bannwarth, S. Ehlert and S. Grimme., J. Chem. Theory Comput., 2019,
     15, 1652-1671. DOI: 10.1021/acs.jctc.8b01176
   for GFN1-xTB:
   * S. Grimme, C. Bannwarth, P. Shushkov, J. Chem. Theory Comput., 2017,
     13, 1989-2009. DOI: 10.1021/acs.jctc.7b00118
   for GFN0-xTB:
   * P. Pracht, E. Caldeweyher, S. Ehlert, S. Grimme, ChemRxiv, 2019, preprint.
     DOI: 10.26434/chemrxiv.8326202.v1
   for GFN-FF:
   * S. Spicher and S. Grimme, Angew. Chem. Int. Ed., 2020, 59, 15665-15673.
     DOI: 10.1002/anie.202004239
   
   for ALPB and GBSA implicit solvation:
   * S. Ehlert, M. Stahn, S. Spicher, S. Grimme, J. Chem. Theory Comput.,
     2021, 17, 4250-4261. DOI: 10.1021/acs.jctc.1c00471
   
   for DFT-D4:
   * E. Caldeweyher, C. Bannwarth and S. Grimme, J. Chem. Phys., 2017,
     147, 034112. DOI: 10.1063/1.4993215
   * E. Caldeweyher, S. Ehlert, A. Hansen, H. Neugebauer, S. Spicher,
     C. Bannwarth and S. Grimme, J. Chem. Phys., 2019, 150, 154122.
     DOI: 10.1063/1.5090222
   * E. Caldeweyher, J.-M. Mewes, S. Ehlert and S. Grimme, Phys. Chem. Chem. Phys.
     2020, 22, 8499-8512. DOI: 10.1039/D0CP00502A
   
   for sTDA-xTB:
   * S. Grimme and C. Bannwarth, J. Chem. Phys., 2016, 145, 054103.
     DOI: 10.1063/1.4959605
   
   in the mass-spec context:
   * V. Asgeirsson, C. Bauer and S. Grimme, Chem. Sci., 2017, 8, 4879.
     DOI: 10.1039/c7sc00601b
   * J. Koopman and S. Grimme, ACS Omega 2019, 4, 12, 15120-15133.
     DOI: 10.1021/acsomega.9b02011
   
   for metadynamics refer to:
   * S. Grimme, J. Chem. Theory Comput., 2019, 155, 2847-2862
     DOI: 10.1021/acs.jctc.9b00143
   
   for SPH calculations refer to:
   * S. Spicher and S. Grimme, J. Chem. Theory Comput., 2021, 17, 1701-1714
     DOI: 10.1021/acs.jctc.0c01306
   
   with help from (in alphabetical order)
   P. Atkinson, C. Bannwarth, F. Bohle, G. Brandenburg, E. Caldeweyher
   M. Checinski, S. Dohm, S. Ehlert, S. Ehrlich, I. Gerasimov, C. Hölzer
   A. Katbashev, J. Koopman, C. Lavigne, S. Lehtola, F. März, M. Müller,
   F. Musil, H. Neugebauer, J. Pisarek, C. Plett, P. Pracht, F. Pultar,
   J. Seibert, P. Shushkov, S. Spicher, M. Stahn, M. Steiner, T. Strunk,
   J. Stückrath, T. Rose, and J. Unsleber
   
 * started run on 2025/07/30 at 12:16:26.743     

           -------------------------------------------------
          |                Calculation Setup                |
           -------------------------------------------------

          program call               : xtb --gfn2 in.xyz --opt vtight
          coordinate file            : in.xyz
          omp threads                :                     8

   ID    Z sym.   atoms
    1    6 C      1-4, 8, 10
    2    8 O      5, 6
    3    7 N      7, 9, 11, 12
    4    1 H      13-26

           -------------------------------------------------
          |                 G F N 2 - x T B                 |
           -------------------------------------------------

        Reference                      10.1021/acs.jctc.8b01176
      * Hamiltonian:
        H0-scaling (s, p, d)           1.850000    2.230000    2.230000
        zeta-weighting                 0.500000
      * Dispersion:
        s8                             2.700000
        a1                             0.520000
        a2                             5.000000
        s9                             5.000000
      * Repulsion:
        kExp                           1.500000    1.000000
        rExp                           1.000000
      * Coulomb:
        alpha                          2.000000
        third order                    shell-resolved
        anisotropic                    true
        a3                             3.000000
        a5                             4.000000
        cn-shift                       1.200000
        cn-exp                         4.000000
        max-rad                        5.000000


          ...................................................
          :                      SETUP                      :
          :.................................................:
          :  # basis functions                  62          :
          :  # atomic orbitals                  62          :
          :  # shells                           38          :
          :  # electrons                        70          :
          :  max. iterations                   250          :
          :  Hamiltonian                  GFN2-xTB          :
          :  restarted?                      false          :
          :  GBSA solvation                  false          :
          :  PC potential                    false          :
          :  electronic temp.          300.0000000     K    :
          :  accuracy                    1.0000000          :
          :  -> integral cutoff          0.2500000E+02      :
          :  -> integral neglect         0.1000000E-07      :
          :  -> SCF convergence          0.1000000E-05 Eh   :
          :  -> wf. convergence          0.1000000E-03 e    :
          :  Broyden damping             0.4000000          :
          ...................................................

 iter      E             dE          RMSdq      gap      omega  full diag
   1    -40.0448289 -0.400448E+02  0.398E+00    3.21       0.0  T
   2    -40.1062243 -0.613954E-01  0.214E+00    2.32       1.0  T
   3    -40.1094067 -0.318238E-02  0.121E+00    2.82       1.0  T
   4    -40.1174770 -0.807034E-02  0.251E-01    2.40       1.0  T
   5    -40.1182642 -0.787221E-03  0.892E-02    2.37       1.0  T
   6    -40.1182877 -0.234692E-04  0.445E-02    2.37       1.0  T
   7    -40.1182960 -0.829463E-05  0.195E-02    2.36       1.0  T
   8    -40.1183001 -0.405588E-05  0.448E-03    2.36       4.4  T
   9    -40.1183001 -0.467696E-07  0.196E-03    2.36      10.0  T
  10    -40.1183001 -0.114713E-07  0.716E-04    2.36      27.4  T
  11    -40.1183001 -0.196178E-08  0.251E-04    2.36      78.0  T

   *** convergence criteria satisfied after 11 iterations ***

         #    Occupation            Energy/Eh            Energy/eV
      -------------------------------------------------------------
         1        2.0000           -0.7202424             -19.5988
       ...           ...                  ...                  ...
        29        2.0000           -0.4292891             -11.6816
        30        2.0000           -0.4140047             -11.2656
        31        2.0000           -0.4072713             -11.0824
        32        2.0000           -0.3759727             -10.2307
        33        2.0000           -0.3616881              -9.8420
        34        2.0000           -0.3524817              -9.5915
        35        2.0000           -0.3339490              -9.0872 (HOMO)
        36                         -0.2470791              -6.7234 (LUMO)
        37                         -0.1837654              -5.0005
        38                         -0.0537608              -1.4629
        39                         -0.0480709              -1.3081
        40                          0.0020536               0.0559
       ...                                ...                  ...
        62                          0.6682194              18.1832
      -------------------------------------------------------------
                  HL-Gap            0.0868698 Eh            2.3638 eV
             Fermi-level           -0.2905140 Eh           -7.9053 eV

 SCC (total)                   0 d,  0 h,  0 min,  0.046 sec
 SCC setup                      ...        0 min,  0.000 sec (  0.476%)
 Dispersion                     ...        0 min,  0.000 sec (  0.948%)
 classical contributions        ...        0 min,  0.000 sec (  0.353%)
 integral evaluation            ...        0 min,  0.002 sec (  4.650%)
 iterations                     ...        0 min,  0.035 sec ( 77.170%)
 molecular gradient             ...        0 min,  0.007 sec ( 15.581%)
 printout                       ...        0 min,  0.000 sec (  0.763%)

         :::::::::::::::::::::::::::::::::::::::::::::::::::::
         ::                     SUMMARY                     ::
         :::::::::::::::::::::::::::::::::::::::::::::::::::::
         :: total energy             -39.722818684522 Eh    ::
         :: gradient norm              0.203087183030 Eh/a0 ::
         :: HOMO-LUMO gap              2.363848368097 eV    ::
         ::.................................................::
         :: SCC energy               -40.118300126690 Eh    ::
         :: -> isotropic ES            0.095775679416 Eh    ::
         :: -> anisotropic ES          0.012577560064 Eh    ::
         :: -> anisotropic XC          0.022096689822 Eh    ::
         :: -> dispersion             -0.021720655988 Eh    ::
         :: repulsion energy           0.395250501647 Eh    ::
         :: add. restraining           0.000000000000 Eh    ::
         :: total charge              -0.000000000000 e     ::
         :::::::::::::::::::::::::::::::::::::::::::::::::::::

      ----------------------------------------------------------- 
     |                   =====================                   |
     |                        A N C O P T                        |
     |                   =====================                   |
     |               Approximate Normal Coordinate               |
     |                Rational Function Optimizer                |
      ----------------------------------------------------------- 

          ...................................................
          :                      SETUP                      :
          :.................................................:
          :   optimization level         verytight          :
          :   max. optcycles                   520          :
          :   ANC micro-cycles                  20          :
          :   degrees of freedom                72          :
          :.................................................:
          :   RF solver                   davidson          :
          :   write xtbopt.log                true          :
          :   linear?                        false          :
          :   energy convergence         0.1000000E-06 Eh   :
          :   grad. convergence          0.2000000E-03 Eh/α :
          :   maxmium RF displ.          1.0000000          :
          :   Hlow (freq-cutoff)         0.1000000E-01      :
          :   Hmax (freq-cutoff)         5.0000000          :
          :   S6 in model hess.         20.0000000          :
          ...................................................

generating ANC from model Hessian ...
Using Lindh-Hessian (1995)
 Shifting diagonal of input Hessian by   9.494807105856609E-003
 Lowest  eigenvalues of input Hessian
    0.000000    0.000000    0.000000    0.000000    0.000000    0.000000
    0.010000    0.010531    0.010855    0.012322    0.013229    0.016861
    0.018952    0.020874    0.024342    0.025069    0.025863    0.026376
 Highest eigenvalues
    1.443456    1.547137    1.718779    1.834697    2.041270    2.239600
 

........................................................................
.............................. CYCLE    1 ..............................
........................................................................

 iter      E             dE          RMSdq      gap      omega  full diag
   1    -40.1183001 -0.401183E+02  0.101E-04    2.36       0.0  T
   2    -40.1183001 -0.212381E-10  0.619E-05    2.36     316.9  T
   3    -40.1183001 -0.234479E-11  0.278E-05    2.36     704.5  T
     SCC iter.                  ...        0 min,  0.008 sec
     gradient                   ...        0 min,  0.007 sec
 * total energy  :   -39.7228187 Eh     change       -0.3159144E-09 Eh
   gradient norm :     0.2030866 Eh/α   predicted     0.0000000E+00 (-100.00%)
   displ. norm   :     0.4106589 α      lambda       -0.5257219E-01
   maximum displ.:     0.1483800 α      in ANC's #18, #31, #27, ...

........................................................................
.............................. CYCLE    2 ..............................
........................................................................

 iter      E             dE          RMSdq      gap      omega  full diag
   1    -40.1893987 -0.401894E+02  0.366E-01    2.93       0.0  T
   2    -40.1902381 -0.839344E-03  0.245E-01    2.78       1.0  T
   3    -40.1903408 -0.102704E-03  0.130E-01    2.80       1.0  T
   4    -40.1903735 -0.327611E-04  0.353E-02    2.78       1.0  T
   5    -40.1903941 -0.205129E-04  0.796E-03    2.78       2.5  T
   6    -40.1903942 -0.178626E-06  0.315E-03    2.79       6.2  T
   7    -40.1903943 -0.499276E-07  0.109E-03    2.79      17.9  T
   8    -40.1903943 -0.693856E-08  0.397E-04    2.79      49.3  T
   9    -40.1903943 -0.524352E-09  0.133E-04    2.79     147.2  T
     SCC iter.                  ...        0 min,  0.023 sec
     gradient                   ...        0 min,  0.006 sec
 * total energy  :   -39.7609297 Eh     change       -0.3811103E-01 Eh
   gradient norm :     0.0849587 Eh/α   predicted    -0.3073706E-01 ( -19.35%)
   displ. norm   :     0.4061119 α      lambda       -0.2046604E-01
   maximum displ.:     0.1524254 α      in ANC's #31, #18, #11, ...

........................................................................
.............................. CYCLE    3 ..............................
........................................................................

 iter      E             dE          RMSdq      gap      omega  full diag
   1    -40.2310994 -0.402311E+02  0.310E-01    3.18       0.0  T
   2    -40.2317194 -0.619927E-03  0.206E-01    3.06       1.0  T
   3    -40.2318069 -0.875516E-04  0.110E-01    3.07       1.0  T
   4    -40.2318278 -0.209175E-04  0.300E-02    3.05       1.0  T
   5    -40.2318416 -0.137425E-04  0.678E-03    3.05       2.9  T
   6    -40.2318417 -0.104371E-06  0.210E-03    3.05       9.3  T
   7    -40.2318417 -0.174443E-07  0.783E-04    3.05      25.0  T
   8    -40.2318417 -0.224711E-08  0.240E-04    3.05      81.6  T
     SCC iter.                  ...        0 min,  0.019 sec
     gradient                   ...        0 min,  0.006 sec
 * total energy  :   -39.7726692 Eh     change       -0.1173951E-01 Eh
   gradient norm :     0.0270026 Eh/α   predicted    -0.1192072E-01 (   1.54%)
   displ. norm   :     0.3633797 α      lambda       -0.4393799E-02
   maximum displ.:     0.1635928 α      in ANC's #9, #11, #7, ...

........................................................................
.............................. CYCLE    4 ..............................
........................................................................

 iter      E             dE          RMSdq      gap      omega  full diag
   1    -40.2264344 -0.402264E+02  0.184E-01    3.05       0.0  T
   2    -40.2265372 -0.102792E-03  0.104E-01    3.04       1.0  T
   3    -40.2265362  0.100702E-05  0.467E-02    3.06       1.0  T
   4    -40.2265460 -0.988749E-05  0.123E-02    3.05       1.6  T
   5    -40.2265483 -0.220986E-05  0.386E-03    3.05       5.1  T
   6    -40.2265483 -0.582651E-07  0.182E-03    3.05      10.8  T
   7    -40.2265483 -0.105568E-07  0.500E-04    3.05      39.2  T
   8    -40.2265483 -0.139755E-08  0.189E-04    3.05     104.0  T
     SCC iter.                  ...        0 min,  0.010 sec
     gradient                   ...        0 min,  0.006 sec
 * total energy  :   -39.7755475 Eh     change       -0.2878305E-02 Eh
   gradient norm :     0.0332082 Eh/α   predicted    -0.2487004E-02 ( -13.59%)
   displ. norm   :     0.3928855 α      lambda       -0.3091820E-02
   maximum displ.:     0.1696452 α      in ANC's #9, #7, #11, ...

........................................................................
.............................. CYCLE    5 ..............................
........................................................................

 iter      E             dE          RMSdq      gap      omega  full diag
   1    -40.2233868 -0.402234E+02  0.136E-01    3.05       0.0  T
   2    -40.2234491 -0.623112E-04  0.753E-02    3.05       1.0  T
   3    -40.2234504 -0.125080E-05  0.289E-02    3.06       1.0  T
   4    -40.2234525 -0.213283E-05  0.735E-03    3.06       2.7  T
   5    -40.2234531 -0.599365E-06  0.277E-03    3.06       7.1  T
   6    -40.2234531 -0.325261E-07  0.132E-03    3.06      14.8  T
   7    -40.2234531 -0.918003E-08  0.324E-04    3.06      60.6  T
   8    -40.2234531 -0.701569E-09  0.134E-04    3.06     146.7  T
     SCC iter.                  ...        0 min,  0.012 sec
     gradient                   ...        0 min,  0.006 sec
 * total energy  :   -39.7779046 Eh     change       -0.2357026E-02 Eh
   gradient norm :     0.0336535 Eh/α   predicted    -0.1784539E-02 ( -24.29%)
   displ. norm   :     0.4845532 α      lambda       -0.3617719E-02
   maximum displ.:     0.2124329 α      in ANC's #5, #7, #11, ...

........................................................................
.............................. CYCLE    6 ..............................
........................................................................

 iter      E             dE          RMSdq      gap      omega  full diag
   1    -40.2249809 -0.402250E+02  0.150E-01    3.05       0.0  T
   2    -40.2250749 -0.939904E-04  0.806E-02    3.04       1.0  T
   3    -40.2250772 -0.236817E-05  0.323E-02    3.06       1.0  T
   4    -40.2250793 -0.208285E-05  0.796E-03    3.05       2.5  T
   5    -40.2250800 -0.636013E-06  0.293E-03    3.05       6.7  T
   6    -40.2250800 -0.206220E-07  0.133E-03    3.05      14.8  T
   7    -40.2250800 -0.124341E-07  0.316E-04    3.05      62.1  T
   8    -40.2250800 -0.108388E-08  0.137E-04    3.05     143.2  T
     SCC iter.                  ...        0 min,  0.009 sec
     gradient                   ...        0 min,  0.004 sec
 * total energy  :   -39.7806732 Eh     change       -0.2768622E-02 Eh
   gradient norm :     0.0344001 Eh/α   predicted    -0.2233597E-02 ( -19.32%)
   displ. norm   :     0.4858370 α      lambda       -0.4098630E-02
   maximum displ.:     0.2142059 α      in ANC's #5, #7, #11, ...

........................................................................
.............................. CYCLE    7 ..............................
........................................................................

 iter      E             dE          RMSdq      gap      omega  full diag
   1    -40.2333049 -0.402333E+02  0.145E-01    3.02       0.0  T
   2    -40.2333863 -0.814134E-04  0.824E-02    3.01       1.0  T
   3    -40.2333894 -0.301433E-05  0.287E-02    3.01       1.0  T
   4    -40.2333904 -0.101319E-05  0.673E-03    3.01       2.9  T
   5    -40.2333908 -0.440359E-06  0.298E-03    3.01       6.6  T
   6    -40.2333908 -0.244061E-07  0.116E-03    3.01      16.9  T
   7    -40.2333908 -0.129300E-07  0.260E-04    3.01      75.6  T
   8    -40.2333908 -0.598185E-09  0.137E-04    3.01     143.6  T
     SCC iter.                  ...        0 min,  0.012 sec
     gradient                   ...        0 min,  0.003 sec
 * total energy  :   -39.7836509 Eh     change       -0.2977697E-02 Eh
   gradient norm :     0.0227282 Eh/α   predicted    -0.2533038E-02 ( -14.93%)
   displ. norm   :     0.5862690 α      lambda       -0.3450811E-02
   maximum displ.:     0.2473894 α      in ANC's #5, #11, #9, ...

........................................................................
.............................. CYCLE    8 ..............................
........................................................................

 iter      E             dE          RMSdq      gap      omega  full diag
   1    -40.2317579 -0.402318E+02  0.200E-01    2.97       0.0  T
   2    -40.2319569 -0.198985E-03  0.105E-01    2.93       1.0  T
   3    -40.2319612 -0.436521E-05  0.529E-02    2.95       1.0  T
   4    -40.2319722 -0.110066E-04  0.161E-02    2.94       1.2  T
   5    -40.2319752 -0.297527E-05  0.389E-03    2.94       5.0  T
   6    -40.2319752 -0.395852E-07  0.172E-03    2.94      11.4  T
   7    -40.2319752 -0.573036E-08  0.285E-04    2.94      68.8  T
   8    -40.2319752 -0.474337E-09  0.149E-04    2.94     131.2  T
     SCC iter.                  ...        0 min,  0.008 sec
     gradient                   ...        0 min,  0.006 sec
 * total energy  :   -39.7856166 Eh     change       -0.1965745E-02 Eh
   gradient norm :     0.0371753 Eh/α   predicted    -0.2318451E-02 (  17.94%)
   displ. norm   :     0.3342070 α      lambda       -0.3466764E-02
   maximum displ.:     0.1336799 α      in ANC's #4, #5, #1, ...

........................................................................
.............................. CYCLE    9 ..............................
........................................................................

 iter      E             dE          RMSdq      gap      omega  full diag
   1    -40.2494848 -0.402495E+02  0.130E-01    2.93       0.0  T
   2    -40.2495507 -0.659109E-04  0.756E-02    2.90       1.0  T
   3    -40.2495516 -0.959799E-06  0.375E-02    2.91       1.0  T
   4    -40.2495594 -0.774502E-05  0.881E-03    2.90       2.2  T
   5    -40.2495604 -0.101512E-05  0.226E-03    2.91       8.7  T
   6    -40.2495604 -0.801391E-08  0.100E-03    2.91      19.5  T
   7    -40.2495604 -0.168836E-08  0.213E-04    2.91      92.3  T
   8    -40.2495604 -0.205333E-09  0.929E-05    2.91     211.1  T
     SCC iter.                  ...        0 min,  0.008 sec
     gradient                   ...        0 min,  0.005 sec
 * total energy  :   -39.7864291 Eh     change       -0.8124458E-03 Eh
   gradient norm :     0.0534589 Eh/α   predicted    -0.1926994E-02 ( 137.18%)
   displ. norm   :     0.4145646 α      lambda       -0.5717045E-02
   maximum displ.:     0.2208351 α      in ANC's #2, #9, #11, ...

........................................................................
.............................. CYCLE   10 ..............................
........................................................................

 iter      E             dE          RMSdq      gap      omega  full diag
   1    -40.2488621 -0.402489E+02  0.186E-01    2.95       0.0  T
   2    -40.2489236 -0.614697E-04  0.108E-01    2.93       1.0  T
   3    -40.2489202  0.338877E-05  0.364E-02    2.94       1.0  T
   4    -40.2489315 -0.112437E-04  0.974E-03    2.93       2.0  T
   5    -40.2489325 -0.104266E-05  0.377E-03    2.93       5.2  T
   6    -40.2489325 -0.400426E-07  0.134E-03    2.93      14.7  T
   7    -40.2489326 -0.926558E-08  0.396E-04    2.93      49.5  T
   8    -40.2489326 -0.538343E-09  0.153E-04    2.93     128.4  T
     SCC iter.                  ...        0 min,  0.008 sec
     gradient                   ...        0 min,  0.006 sec
 * total energy  :   -39.7859844 Eh     change        0.4446606E-03 Eh
   gradient norm :     0.0638958 Eh/α   predicted    -0.3349802E-02 (-853.34%)
   displ. norm   :     0.1912022 α      lambda       -0.6208588E-02
   maximum displ.:     0.0790733 α      in ANC's #12, #13, #30, ...

........................................................................
.............................. CYCLE   11 ..............................
........................................................................

 iter      E             dE          RMSdq      gap      omega  full diag
   1    -40.2399139 -0.402399E+02  0.130E-01    2.93       0.0  T
   2    -40.2399374 -0.235125E-04  0.738E-02    2.91       1.0  T
   3    -40.2399387 -0.133409E-05  0.183E-02    2.91       1.1  T
   4    -40.2399399 -0.116259E-05  0.536E-03    2.91       3.7  T
   5    -40.2399400 -0.171681E-06  0.268E-03    2.91       7.3  T
   6    -40.2399401 -0.235507E-07  0.865E-04    2.91      22.7  T
   7    -40.2399401 -0.552840E-08  0.305E-04    2.91      64.2  T
     SCC iter.                  ...        0 min,  0.007 sec
     gradient                   ...        0 min,  0.006 sec
 * total energy  :   -39.7885051 Eh     change       -0.2520716E-02 Eh
   gradient norm :     0.0397104 Eh/α   predicted    -0.3217789E-02 (  27.65%)
   displ. norm   :     0.2739993 α      lambda       -0.3616775E-02
   maximum displ.:     0.1161794 α      in ANC's #15, #13, #10, ...

........................................................................
.............................. CYCLE   12 ..............................
........................................................................

 iter      E             dE          RMSdq      gap      omega  full diag
   1    -40.2324401 -0.402324E+02  0.170E-01    2.90       0.0  T
   2    -40.2324739 -0.338204E-04  0.968E-02    2.91       1.0  T
   3    -40.2324753 -0.138797E-05  0.206E-02    2.93       1.0  T
   4    -40.2324774 -0.205193E-05  0.548E-03    2.92       3.6  T
   5    -40.2324776 -0.227958E-06  0.271E-03    2.92       7.2  T
   6    -40.2324776 -0.952903E-08  0.736E-04    2.92      26.7  T
   7    -40.2324776 -0.652562E-08  0.276E-04    2.92      70.9  T
     SCC iter.                  ...        0 min,  0.027 sec
     gradient                   ...        0 min,  0.011 sec
 * total energy  :   -39.7865730 Eh     change        0.1932075E-02 Eh
   gradient norm :     0.0623045 Eh/α   predicted    -0.1944153E-02 (-200.63%)
   displ. norm   :     0.1979097 α      lambda       -0.6121080E-02
   maximum displ.:     0.0847303 α      in ANC's #7, #10, #2, ...

........................................................................
.............................. CYCLE   13 ..............................
........................................................................

 iter      E             dE          RMSdq      gap      omega  full diag
   1    -40.2479025 -0.402479E+02  0.140E-01    2.95       0.0  T
   2    -40.2479143 -0.117639E-04  0.806E-02    2.94       1.0  T
   3    -40.2479153 -0.101984E-05  0.109E-02    2.93       1.8  T
   4    -40.2479160 -0.666437E-06  0.458E-03    2.93       4.3  T
   5    -40.2479161 -0.144541E-06  0.219E-03    2.93       9.0  T
   6    -40.2479161 -0.129023E-07  0.579E-04    2.93      33.9  T
   7    -40.2479161 -0.193212E-08  0.198E-04    2.93      99.0  T
     SCC iter.                  ...        0 min,  0.007 sec
     gradient                   ...        0 min,  0.003 sec
 * total energy  :   -39.7898076 Eh     change       -0.3234523E-02 Eh
   gradient norm :     0.0181321 Eh/α   predicted    -0.3180421E-02 (  -1.67%)
   displ. norm   :     0.3867326 α      lambda       -0.1798947E-02
   maximum displ.:     0.1514077 α      in ANC's #2, #9, #1, ...

........................................................................
.............................. CYCLE   14 ..............................
........................................................................

 iter      E             dE          RMSdq      gap      omega  full diag
   1    -40.2410380 -0.402410E+02  0.132E-01    2.95       0.0  T
   2    -40.2410893 -0.513482E-04  0.727E-02    2.92       1.0  T
   3    -40.2410890  0.308139E-06  0.313E-02    2.93       1.0  T
   4    -40.2410942 -0.520304E-05  0.845E-03    2.92       2.3  T
   5    -40.2410951 -0.829491E-06  0.280E-03    2.92       7.0  T
   6    -40.2410951 -0.143430E-07  0.100E-03    2.92      19.6  T
   7    -40.2410951 -0.285077E-08  0.224E-04    2.92      87.4  T
   8    -40.2410951 -0.200508E-09  0.966E-05    2.92     203.1  T
     SCC iter.                  ...        0 min,  0.018 sec
     gradient                   ...        0 min,  0.006 sec
 * total energy  :   -39.7901106 Eh     change       -0.3030406E-03 Eh
   gradient norm :     0.0360062 Eh/α   predicted    -0.1034005E-02 ( 241.21%)
   displ. norm   :     0.1714920 α      lambda       -0.1558181E-02
   maximum displ.:     0.0795048 α      in ANC's #2, #5, #1, ...

........................................................................
.............................. CYCLE   15 ..............................
........................................................................

 iter      E             dE          RMSdq      gap      omega  full diag
   1    -40.2441536 -0.402442E+02  0.755E-02    2.94       0.0  T
   2    -40.2441606 -0.697001E-05  0.430E-02    2.94       1.0  T
   3    -40.2441611 -0.467732E-06  0.899E-03    2.95       2.2  T
   4    -40.2441614 -0.383901E-06  0.330E-03    2.95       5.9  T
   5    -40.2441615 -0.949446E-07  0.155E-03    2.95      12.6  T
   6    -40.2441615 -0.622956E-08  0.460E-04    2.95      42.6  T
   7    -40.2441615 -0.144906E-08  0.197E-04    2.95      99.3  T
     SCC iter.                  ...        0 min,  0.011 sec
     gradient                   ...        0 min,  0.004 sec
 * total energy  :   -39.7912400 Eh     change       -0.1129413E-02 Eh
   gradient norm :     0.0143237 Eh/α   predicted    -0.8020070E-03 ( -28.99%)
   displ. norm   :     0.4360504 α      lambda       -0.1660159E-02
   maximum displ.:     0.2431283 α      in ANC's #2, #1, #12, ...

........................................................................
.............................. CYCLE   16 ..............................
........................................................................

 iter      E             dE          RMSdq      gap      omega  full diag
   1    -40.2455785 -0.402456E+02  0.152E-01    3.00       0.0  T
   2    -40.2455975 -0.190616E-04  0.877E-02    2.99       1.0  T
   3    -40.2455955  0.204508E-05  0.214E-02    3.00       1.0  T
   4    -40.2456014 -0.593954E-05  0.636E-03    2.99       3.1  T
   5    -40.2456017 -0.260183E-06  0.290E-03    2.99       6.8  T
   6    -40.2456017 -0.216595E-07  0.480E-04    2.99      40.8  T
   7    -40.2456017 -0.160789E-08  0.220E-04    2.99      89.2  T
     SCC iter.                  ...        0 min,  0.008 sec
     gradient                   ...        0 min,  0.006 sec
 * total energy  :   -39.7924372 Eh     change       -0.1197143E-02 Eh
   gradient norm :     0.0152688 Eh/α   predicted    -0.9879127E-03 ( -17.48%)
   displ. norm   :     0.5272550 α      lambda       -0.1419978E-02
   maximum displ.:     0.2852256 α      in ANC's #2, #1, #12, ...

........................................................................
.............................. CYCLE   17 ..............................
........................................................................

 iter      E             dE          RMSdq      gap      omega  full diag
   1    -40.2394292 -0.402394E+02  0.173E-01    3.05       0.0  T
   2    -40.2394584 -0.292341E-04  0.996E-02    3.04       1.0  T
   3    -40.2394589 -0.492566E-06  0.218E-02    3.05       1.0  T
   4    -40.2394629 -0.395349E-05  0.707E-03    3.05       2.8  T
   5    -40.2394632 -0.305364E-06  0.348E-03    3.05       5.6  T
   6    -40.2394632 -0.481509E-07  0.656E-04    3.05      29.9  T
   7    -40.2394632 -0.243018E-08  0.314E-04    3.05      62.5  T
     SCC iter.                  ...        0 min,  0.014 sec
     gradient                   ...        0 min,  0.006 sec
 * total energy  :   -39.7934156 Eh     change       -0.9784857E-03 Eh
   gradient norm :     0.0206524 Eh/α   predicted    -0.9073665E-03 (  -7.27%)
   displ. norm   :     0.4056601 α      lambda       -0.1180790E-02
   maximum displ.:     0.2138240 α      in ANC's #1, #2, #12, ...

........................................................................
.............................. CYCLE   18 ..............................
........................................................................

 iter      E             dE          RMSdq      gap      omega  full diag
   1    -40.2404918 -0.402405E+02  0.130E-01    3.08       0.0  T
   2    -40.2405168 -0.249151E-04  0.741E-02    3.06       1.0  T
   3    -40.2405147  0.202803E-05  0.239E-02    3.08       1.0  T
   4    -40.2405199 -0.515936E-05  0.607E-03    3.07       3.2  T
   5    -40.2405203 -0.387400E-06  0.252E-03    3.07       7.8  T
   6    -40.2405203 -0.949039E-08  0.633E-04    3.07      31.0  T
   7    -40.2405203 -0.210348E-08  0.164E-04    3.07     119.4  T
     SCC iter.                  ...        0 min,  0.021 sec
     gradient                   ...        0 min,  0.003 sec
 * total energy  :   -39.7942931 Eh     change       -0.8774009E-03 Eh
   gradient norm :     0.0150118 Eh/α   predicted    -0.6875543E-03 ( -21.64%)
   displ. norm   :     0.3708607 α      lambda       -0.1075070E-02
   maximum displ.:     0.2174274 α      in ANC's #1, #2, #4, ...

........................................................................
.............................. CYCLE   19 ..............................
........................................................................

 iter      E             dE          RMSdq      gap      omega  full diag
   1    -40.2450728 -0.402451E+02  0.105E-01    3.09       0.0  T
   2    -40.2450862 -0.133955E-04  0.596E-02    3.07       1.0  T
   3    -40.2450854  0.797607E-06  0.175E-02    3.08       1.1  T
   4    -40.2450879 -0.247997E-05  0.450E-03    3.08       4.4  T
   5    -40.2450881 -0.181642E-06  0.206E-03    3.08       9.5  T
   6    -40.2450881 -0.857750E-08  0.523E-04    3.08      37.5  T
   7    -40.2450881 -0.210138E-08  0.155E-04    3.08     126.5  T
     SCC iter.                  ...        0 min,  0.008 sec
     gradient                   ...        0 min,  0.006 sec
 * total energy  :   -39.7950081 Eh     change       -0.7150700E-03 Eh
   gradient norm :     0.0096659 Eh/α   predicted    -0.6114690E-03 ( -14.49%)
   displ. norm   :     0.5356584 α      lambda       -0.7951725E-03
   maximum displ.:     0.3263100 α      in ANC's #1, #2, #3, ...

........................................................................
.............................. CYCLE   20 ..............................
........................................................................

 iter      E             dE          RMSdq      gap      omega  full diag
   1    -40.2412996 -0.402413E+02  0.148E-01    3.11       0.0  T
   2    -40.2413135 -0.139008E-04  0.868E-02    3.12       1.0  T
   3    -40.2413035  0.100224E-04  0.293E-02    3.12       1.0  T
   4    -40.2413192 -0.157358E-04  0.557E-03    3.12       3.5  T
   5    -40.2413193 -0.495507E-07  0.183E-03    3.12      10.7  T
   6    -40.2413193 -0.852646E-08  0.382E-04    3.12      51.4  T
   7    -40.2413193 -0.724505E-09  0.187E-04    3.12     104.8  T
     SCC iter.                  ...        0 min,  0.009 sec
     gradient                   ...        0 min,  0.004 sec
 * total energy  :   -39.7954190 Eh     change       -0.4109097E-03 Eh
   gradient norm :     0.0144403 Eh/α   predicted    -0.5116660E-03 (  24.52%)
   displ. norm   :     0.3123316 α      lambda       -0.8342538E-03
   maximum displ.:     0.1992399 α      in ANC's #1, #4, #15, ...
 * RMSD in coord.:     1.0068914 α      energy gain  -0.7260035E-01 Eh

generating ANC from model Hessian ...
Using Lindh-Hessian (1995)
 Shifting diagonal of input Hessian by   9.492975851836113E-003
 Lowest  eigenvalues of input Hessian
    0.000000    0.000000    0.000000    0.000000    0.000000    0.000000
    0.010000    0.010387    0.010820    0.012247    0.012309    0.016824
    0.017376    0.022518    0.023419    0.025097    0.027344    0.028397
 Highest eigenvalues
    1.501976    1.550954    1.765277    2.020543    2.306887    2.357667
 

........................................................................
.............................. CYCLE   21 ..............................
........................................................................

 iter      E             dE          RMSdq      gap      omega  full diag
   1    -40.2465242 -0.402465E+02  0.950E-02    3.11       0.0  T
   2    -40.2465316 -0.737734E-05  0.549E-02    3.11       1.0  T
   3    -40.2465307  0.909608E-06  0.141E-02    3.12       1.4  T
   4    -40.2465329 -0.224434E-05  0.362E-03    3.12       5.4  T
   5    -40.2465330 -0.105275E-06  0.180E-03    3.12      10.9  T
   6    -40.2465330 -0.633933E-08  0.538E-04    3.12      36.5  T
   7    -40.2465330 -0.247454E-08  0.202E-04    3.12      97.2  T
     SCC iter.                  ...        0 min,  0.012 sec
     gradient                   ...        0 min,  0.003 sec
 * total energy  :   -39.7959081 Eh     change       -0.4890858E-03 Eh
   gradient norm :     0.0105702 Eh/α   predicted     0.0000000E+00 (-100.00%)
   displ. norm   :     0.1279744 α      lambda       -0.4069238E-03
   maximum displ.:     0.0762409 α      in ANC's #1, #2, #9, ...

........................................................................
.............................. CYCLE   22 ..............................
........................................................................

 iter      E             dE          RMSdq      gap      omega  full diag
   1    -40.2467509 -0.402468E+02  0.529E-02    3.16       0.0  T
   2    -40.2467599 -0.901793E-05  0.294E-02    3.15       1.0  T
   3    -40.2467602 -0.299192E-06  0.141E-02    3.16       1.4  T
   4    -40.2467611 -0.890772E-06  0.250E-03    3.15       7.9  T
   5    -40.2467612 -0.598441E-07  0.104E-03    3.16      18.8  T
   6    -40.2467612 -0.348721E-08  0.560E-04    3.16      35.0  T
   7    -40.2467612 -0.152341E-08  0.119E-04    3.16     164.3  T
     SCC iter.                  ...        0 min,  0.008 sec
     gradient                   ...        0 min,  0.006 sec
 * total energy  :   -39.7962491 Eh     change       -0.3410163E-03 Eh
   gradient norm :     0.0052480 Eh/α   predicted    -0.2067957E-03 ( -39.36%)
   displ. norm   :     0.3687512 α      lambda       -0.7775740E-03
   maximum displ.:     0.2150266 α      in ANC's #1, #2, #9, ...

........................................................................
.............................. CYCLE   23 ..............................
........................................................................

 iter      E             dE          RMSdq      gap      omega  full diag
   1    -40.2452755 -0.402453E+02  0.128E-01    3.19       0.0  T
   2    -40.2453176 -0.421320E-04  0.706E-02    3.18       1.0  T
   3    -40.2453175  0.191421E-06  0.298E-02    3.20       1.0  T
   4    -40.2453220 -0.451317E-05  0.644E-03    3.19       3.0  T
   5    -40.2453225 -0.534314E-06  0.259E-03    3.20       7.6  T
   6    -40.2453225 -0.151276E-07  0.126E-03    3.20      15.6  T
   7    -40.2453225 -0.833254E-08  0.323E-04    3.20      60.8  T
   8    -40.2453225 -0.398416E-09  0.140E-04    3.20     139.7  T
     SCC iter.                  ...        0 min,  0.012 sec
     gradient                   ...        0 min,  0.003 sec
 * total energy  :   -39.7968073 Eh     change       -0.5581512E-03 Eh
   gradient norm :     0.0086082 Eh/α   predicted    -0.4416534E-03 ( -20.87%)
   displ. norm   :     0.3689715 α      lambda       -0.4885741E-03
   maximum displ.:     0.2285565 α      in ANC's #1, #2, #4, ...

........................................................................
.............................. CYCLE   24 ..............................
........................................................................

 iter      E             dE          RMSdq      gap      omega  full diag
   1    -40.2439918 -0.402440E+02  0.113E-01    3.20       0.0  T
   2    -40.2440144 -0.225652E-04  0.632E-02    3.20       1.0  T
   3    -40.2440131  0.124968E-05  0.238E-02    3.22       1.0  T
   4    -40.2440172 -0.407341E-05  0.513E-03    3.21       3.8  T
   5    -40.2440175 -0.330831E-06  0.224E-03    3.21       8.7  T
   6    -40.2440175 -0.888842E-08  0.908E-04    3.21      21.6  T
   7    -40.2440175 -0.470374E-08  0.280E-04    3.21      69.9  T
     SCC iter.                  ...        0 min,  0.008 sec
     gradient                   ...        0 min,  0.007 sec
 * total energy  :   -39.7971917 Eh     change       -0.3844202E-03 Eh
   gradient norm :     0.0128599 Eh/α   predicted    -0.2775515E-03 ( -27.80%)
   displ. norm   :     0.3938786 α      lambda       -0.5552733E-03
   maximum displ.:     0.2520604 α      in ANC's #1, #2, #4, ...

........................................................................
.............................. CYCLE   25 ..............................
........................................................................

 iter      E             dE          RMSdq      gap      omega  full diag
   1    -40.2453179 -0.402453E+02  0.941E-02    3.25       0.0  T
   2    -40.2453296 -0.116802E-04  0.533E-02    3.25       1.0  T
   3    -40.2453279  0.165441E-05  0.203E-02    3.26       1.0  T
   4    -40.2453321 -0.412523E-05  0.378E-03    3.26       5.2  T
   5    -40.2453322 -0.117461E-06  0.191E-03    3.26      10.3  T
   6    -40.2453322 -0.737134E-08  0.634E-04    3.26      30.9  T
   7    -40.2453322 -0.246677E-08  0.246E-04    3.26      79.8  T
     SCC iter.                  ...        0 min,  0.005 sec
     gradient                   ...        0 min,  0.006 sec
 * total energy  :   -39.7976541 Eh     change       -0.4624153E-03 Eh
   gradient norm :     0.0095181 Eh/α   predicted    -0.3207225E-03 ( -30.64%)
   displ. norm   :     0.4615504 α      lambda       -0.6826224E-03
   maximum displ.:     0.3036846 α      in ANC's #1, #2, #4, ...

........................................................................
.............................. CYCLE   26 ..............................
........................................................................

 iter      E             dE          RMSdq      gap      omega  full diag
   1    -40.2487182 -0.402487E+02  0.983E-02    3.34       0.0  T
   2    -40.2487410 -0.228455E-04  0.550E-02    3.33       1.0  T
   3    -40.2487411 -0.107394E-06  0.242E-02    3.35       1.0  T
   4    -40.2487445 -0.332808E-05  0.436E-03    3.35       4.5  T
   5    -40.2487446 -0.176982E-06  0.207E-03    3.35       9.5  T
   6    -40.2487447 -0.107261E-07  0.891E-04    3.35      22.0  T
   7    -40.2487447 -0.570223E-08  0.251E-04    3.35      78.2  T
     SCC iter.                  ...        0 min,  0.005 sec
     gradient                   ...        0 min,  0.011 sec
 * total energy  :   -39.7981864 Eh     change       -0.5322641E-03 Eh
   gradient norm :     0.0054093 Eh/α   predicted    -0.4140215E-03 ( -22.22%)
   displ. norm   :     0.5132337 α      lambda       -0.5671750E-03
   maximum displ.:     0.3324358 α      in ANC's #1, #2, #4, ...

........................................................................
.............................. CYCLE   27 ..............................
........................................................................

 iter      E             dE          RMSdq      gap      omega  full diag
   1    -40.2491357 -0.402491E+02  0.101E-01    3.40       0.0  T
   2    -40.2491563 -0.205557E-04  0.560E-02    3.41       1.0  T
   3    -40.2491561  0.139168E-06  0.217E-02    3.44       1.0  T
   4    -40.2491590 -0.290854E-05  0.459E-03    3.43       4.3  T
   5    -40.2491593 -0.214599E-06  0.209E-03    3.43       9.4  T
   6    -40.2491593 -0.100909E-07  0.787E-04    3.43      24.9  T
   7    -40.2491593 -0.523661E-08  0.253E-04    3.43      77.7  T
     SCC iter.                  ...        0 min,  0.012 sec
     gradient                   ...        0 min,  0.006 sec
 * total energy  :   -39.7986351 Eh     change       -0.4487306E-03 Eh
   gradient norm :     0.0070549 Eh/α   predicted    -0.3582905E-03 ( -20.15%)
   displ. norm   :     0.4466599 α      lambda       -0.5866210E-03
   maximum displ.:     0.2738335 α      in ANC's #1, #2, #3, ...

........................................................................
.............................. CYCLE   28 ..............................
........................................................................

 iter      E             dE          RMSdq      gap      omega  full diag
   1    -40.2524490 -0.402524E+02  0.917E-02    3.53       0.0  T
   2    -40.2524791 -0.300590E-04  0.519E-02    3.53       1.0  T
   3    -40.2524808 -0.172779E-05  0.233E-02    3.56       1.0  T
   4    -40.2524829 -0.211195E-05  0.437E-03    3.56       4.5  T
   5    -40.2524831 -0.123685E-06  0.188E-03    3.56      10.4  T
   6    -40.2524831 -0.613294E-08  0.552E-04    3.56      35.5  T
   7    -40.2524831 -0.645819E-09  0.213E-04    3.56      92.0  T
     SCC iter.                  ...        0 min,  0.011 sec
     gradient                   ...        0 min,  0.006 sec
 * total energy  :   -39.7990562 Eh     change       -0.4210507E-03 Eh
   gradient norm :     0.0150779 Eh/α   predicted    -0.3518310E-03 ( -16.44%)
   displ. norm   :     0.5129496 α      lambda       -0.6204199E-03
   maximum displ.:     0.3295131 α      in ANC's #2, #1, #3, ...

........................................................................
.............................. CYCLE   29 ..............................
........................................................................

 iter      E             dE          RMSdq      gap      omega  full diag
   1    -40.2497326 -0.402497E+02  0.102E-01    3.54       0.0  T
   2    -40.2497654 -0.327625E-04  0.558E-02    3.59       1.0  T
   3    -40.2497675 -0.206873E-05  0.178E-02    3.62       1.1  T
   4    -40.2497680 -0.537510E-06  0.458E-03    3.62       4.3  T
   5    -40.2497681 -0.145193E-06  0.175E-03    3.62      11.2  T
   6    -40.2497682 -0.105477E-07  0.579E-04    3.62      33.9  T
   7    -40.2497682 -0.111522E-08  0.247E-04    3.62      79.4  T
     SCC iter.                  ...        0 min,  0.012 sec
     gradient                   ...        0 min,  0.006 sec
 * total energy  :   -39.7995290 Eh     change       -0.4728416E-03 Eh
   gradient norm :     0.0121877 Eh/α   predicted    -0.3918321E-03 ( -17.13%)
   displ. norm   :     0.5039272 α      lambda       -0.9122899E-03
   maximum displ.:     0.2766995 α      in ANC's #2, #1, #3, ...

........................................................................
.............................. CYCLE   30 ..............................
........................................................................

 iter      E             dE          RMSdq      gap      omega  full diag
   1    -40.2502215 -0.402502E+02  0.129E-01    3.58       0.0  T
   2    -40.2502513 -0.297906E-04  0.730E-02    3.63       1.0  T
   3    -40.2502537 -0.241250E-05  0.161E-02    3.66       1.2  T
   4    -40.2502551 -0.133883E-05  0.606E-03    3.66       3.2  T
   5    -40.2502554 -0.316934E-06  0.233E-03    3.66       8.4  T
   6    -40.2502554 -0.306768E-07  0.106E-03    3.66      18.5  T
   7    -40.2502554 -0.323923E-08  0.398E-04    3.66      49.2  T
   8    -40.2502554 -0.629321E-09  0.126E-04    3.66     155.7  T
     SCC iter.                  ...        0 min,  0.013 sec
     gradient                   ...        0 min,  0.005 sec
 * total energy  :   -39.8002045 Eh     change       -0.6755369E-03 Eh
   gradient norm :     0.0131088 Eh/α   predicted    -0.5719805E-03 ( -15.33%)
   displ. norm   :     0.5754034 α      lambda       -0.8090142E-03
   maximum displ.:     0.3339354 α      in ANC's #2, #1, #3, ...

........................................................................
.............................. CYCLE   31 ..............................
........................................................................

 iter      E             dE          RMSdq      gap      omega  full diag
   1    -40.2437077 -0.402437E+02  0.156E-01    3.62       0.0  T
   2    -40.2437933 -0.856753E-04  0.821E-02    3.72       1.0  T
   3    -40.2437980 -0.468737E-05  0.275E-02    3.74       1.0  T
   4    -40.2438020 -0.398460E-05  0.959E-03    3.76       2.0  T
   5    -40.2438026 -0.624357E-06  0.306E-03    3.75       6.4  T
   6    -40.2438027 -0.796825E-07  0.133E-03    3.75      14.8  T
   7    -40.2438027 -0.306014E-08  0.488E-04    3.75      40.2  T
   8    -40.2438027 -0.142519E-08  0.177E-04    3.75     110.9  T
     SCC iter.                  ...        0 min,  0.008 sec
     gradient                   ...        0 min,  0.006 sec
 * total energy  :   -39.8008243 Eh     change       -0.6197761E-03 Eh
   gradient norm :     0.0156499 Eh/α   predicted    -0.5384360E-03 ( -13.12%)
   displ. norm   :     0.4454816 α      lambda       -0.1106445E-02
   maximum displ.:     0.2117067 α      in ANC's #6, #4, #1, ...

........................................................................
.............................. CYCLE   32 ..............................
........................................................................

 iter      E             dE          RMSdq      gap      omega  full diag
   1    -40.2423393 -0.402423E+02  0.180E-01    3.65       0.0  T
   2    -40.2425380 -0.198706E-03  0.872E-02    3.79       1.0  T
   3    -40.2425496 -0.115412E-04  0.387E-02    3.80       1.0  T
   4    -40.2425554 -0.587062E-05  0.125E-02    3.82       1.6  T
   5    -40.2425561 -0.667410E-06  0.307E-03    3.81       6.4  T
   6    -40.2425562 -0.696876E-07  0.130E-03    3.81      15.1  T
   7    -40.2425562 -0.312751E-08  0.404E-04    3.81      48.5  T
   8    -40.2425562 -0.907292E-09  0.205E-04    3.81      95.7  T
     SCC iter.                  ...        0 min,  0.008 sec
     gradient                   ...        0 min,  0.006 sec
 * total energy  :   -39.8014848 Eh     change       -0.6605260E-03 Eh
   gradient norm :     0.0207403 Eh/α   predicted    -0.6630140E-03 (   0.38%)
   displ. norm   :     0.4948162 α      lambda       -0.1309756E-02
   maximum displ.:     0.2628028 α      in ANC's #2, #1, #6, ...

........................................................................
.............................. CYCLE   33 ..............................
........................................................................

 iter      E             dE          RMSdq      gap      omega  full diag
   1    -40.2362104 -0.402362E+02  0.258E-01    3.90       0.0  T
   2    -40.2366398 -0.429429E-03  0.114E-01    4.03       1.0  T
   3    -40.2366622 -0.223544E-04  0.527E-02    4.02       1.0  T
   4    -40.2366739 -0.117283E-04  0.175E-02    4.03       1.1  T
   5    -40.2366755 -0.162829E-05  0.510E-03    4.03       3.8  T
   6    -40.2366758 -0.264663E-06  0.196E-03    4.03      10.0  T
   7    -40.2366758 -0.569212E-08  0.668E-04    4.03      29.4  T
   8    -40.2366758 -0.205666E-08  0.241E-04    4.03      81.2  T
     SCC iter.                  ...        0 min,  0.011 sec
     gradient                   ...        0 min,  0.005 sec
 * total energy  :   -39.8025583 Eh     change       -0.1073475E-02 Eh
   gradient norm :     0.0201721 Eh/α   predicted    -0.8152208E-03 ( -24.06%)
   displ. norm   :     0.5600666 α      lambda       -0.2946761E-02
   maximum displ.:     0.3062102 α      in ANC's #6, #5, #12, ...

........................................................................
.............................. CYCLE   34 ..............................
........................................................................

 iter      E             dE          RMSdq      gap      omega  full diag
   1    -40.2337577 -0.402338E+02  0.500E-01    4.17       0.0  T
   2    -40.2362049 -0.244725E-02  0.195E-01    4.16       1.0  T
   3    -40.2363280 -0.123094E-03  0.979E-02    4.13       1.0  T
   4    -40.2363523 -0.242853E-04  0.366E-02    4.14       1.0  T
   5    -40.2363563 -0.404428E-05  0.108E-02    4.13       1.8  T
   6    -40.2363575 -0.113275E-05  0.458E-03    4.13       4.3  T
   7    -40.2363575 -0.435083E-07  0.139E-03    4.13      14.1  T
   8    -40.2363575 -0.459829E-08  0.462E-04    4.13      42.4  T
   9    -40.2363575 -0.120669E-08  0.198E-04    4.13      99.1  T
     SCC iter.                  ...        0 min,  0.009 sec
     gradient                   ...        0 min,  0.007 sec
 * total energy  :   -39.8032002 Eh     change       -0.6418828E-03 Eh
   gradient norm :     0.0313981 Eh/α   predicted    -0.1935560E-02 ( 201.54%)
   displ. norm   :     0.4915977 α      lambda       -0.3104593E-02
   maximum displ.:     0.2615071 α      in ANC's #3, #2, #6, ...

........................................................................
.............................. CYCLE   35 ..............................
........................................................................

 iter      E             dE          RMSdq      gap      omega  full diag
   1    -40.2339310 -0.402339E+02  0.315E-01    4.19       0.0  T
   2    -40.2349681 -0.103712E-02  0.155E-01    4.12       1.0  T
   3    -40.2350910 -0.122887E-03  0.739E-02    4.09       1.0  T
   4    -40.2350997 -0.875970E-05  0.223E-02    4.09       1.0  T
   5    -40.2351030 -0.321309E-05  0.657E-03    4.09       3.0  T
   6    -40.2351033 -0.330869E-06  0.249E-03    4.09       7.9  T
   7    -40.2351033 -0.673554E-08  0.697E-04    4.09      28.1  T
   8    -40.2351033 -0.166637E-08  0.267E-04    4.09      73.4  T
     SCC iter.                  ...        0 min,  0.008 sec
     gradient                   ...        0 min,  0.006 sec
 * total energy  :   -39.8049527 Eh     change       -0.1752507E-02 Eh
   gradient norm :     0.0297710 Eh/α   predicted    -0.1927443E-02 (   9.98%)
   displ. norm   :     0.1941669 α      lambda       -0.2077399E-02
   maximum displ.:     0.0739984 α      in ANC's #8, #9, #4, ...

........................................................................
.............................. CYCLE   36 ..............................
........................................................................

 iter      E             dE          RMSdq      gap      omega  full diag
   1    -40.2348680 -0.402349E+02  0.117E-01    4.07       0.0  T
   2    -40.2349487 -0.806798E-04  0.641E-02    4.05       1.0  T
   3    -40.2349530 -0.435433E-05  0.301E-02    4.04       1.0  T
   4    -40.2349554 -0.241582E-05  0.701E-03    4.04       2.8  T
   5    -40.2349557 -0.279675E-06  0.216E-03    4.04       9.1  T
   6    -40.2349557 -0.176435E-07  0.100E-03    4.04      19.6  T
   7    -40.2349557 -0.282153E-08  0.361E-04    4.04      54.3  T
   8    -40.2349557 -0.294946E-09  0.132E-04    4.04     149.1  T
     SCC iter.                  ...        0 min,  0.007 sec
     gradient                   ...        0 min,  0.006 sec
 * total energy  :   -39.8061414 Eh     change       -0.1188709E-02 Eh
   gradient norm :     0.0222460 Eh/α   predicted    -0.1077860E-02 (  -9.33%)
   displ. norm   :     0.6420018 α      lambda       -0.3304251E-02
   maximum displ.:     0.3692365 α      in ANC's #6, #2, #5, ...

........................................................................
.............................. CYCLE   37 ..............................
........................................................................

 iter      E             dE          RMSdq      gap      omega  full diag
   1    -40.2141420 -0.402141E+02  0.636E-01    4.10       0.0  T
   2    -40.2199036 -0.576157E-02  0.301E-01    3.75       1.0  T
   3    -40.2203550 -0.451468E-03  0.144E-01    3.72       1.0  T
   4    -40.2203796 -0.245694E-04  0.514E-02    3.68       1.0  T
   5    -40.2203851 -0.550357E-05  0.122E-02    3.68       1.6  T
   6    -40.2203860 -0.853171E-06  0.504E-03    3.69       3.9  T
   7    -40.2203860 -0.723318E-07  0.142E-03    3.69      13.8  T
   8    -40.2203860 -0.495888E-08  0.545E-04    3.69      36.0  T
   9    -40.2203860 -0.116592E-08  0.154E-04    3.69     127.2  T
     SCC iter.                  ...        0 min,  0.015 sec
     gradient                   ...        0 min,  0.003 sec
 * total energy  :   -39.8081265 Eh     change       -0.1985039E-02 Eh
   gradient norm :     0.0321169 Eh/α   predicted    -0.2333086E-02 (  17.53%)
   displ. norm   :     0.3531613 α      lambda       -0.2982270E-02
   maximum displ.:     0.2077436 α      in ANC's #4, #1, #16, ...

........................................................................
.............................. CYCLE   38 ..............................
........................................................................

 iter      E             dE          RMSdq      gap      omega  full diag
   1    -40.2291957 -0.402292E+02  0.251E-01    3.72       0.0  T
   2    -40.2297137 -0.518018E-03  0.133E-01    3.50       1.0  T
   3    -40.2297378 -0.240913E-04  0.622E-02    3.48       1.0  T
   4    -40.2297436 -0.574007E-05  0.193E-02    3.46       1.0  T
   5    -40.2297456 -0.198181E-05  0.501E-03    3.47       3.9  T
   6    -40.2297457 -0.118161E-06  0.239E-03    3.47       8.2  T
   7    -40.2297457 -0.222192E-07  0.631E-04    3.47      31.1  T
   8    -40.2297457 -0.100124E-08  0.221E-04    3.47      88.7  T
     SCC iter.                  ...        0 min,  0.005 sec
     gradient                   ...        0 min,  0.011 sec
 * total energy  :   -39.8086769 Eh     change       -0.5504526E-03 Eh
   gradient norm :     0.0294578 Eh/α   predicted    -0.1677115E-02 ( 204.68%)
   displ. norm   :     0.2736747 α      lambda       -0.3363906E-02
   maximum displ.:     0.1336857 α      in ANC's #6, #1, #4, ...

........................................................................
.............................. CYCLE   39 ..............................
........................................................................

 iter      E             dE          RMSdq      gap      omega  full diag
   1    -40.2325573 -0.402326E+02  0.262E-01    3.54       0.0  T
   2    -40.2337801 -0.122281E-02  0.131E-01    3.80       1.0  T
   3    -40.2338379 -0.578425E-04  0.707E-02    3.82       1.0  T
   4    -40.2338404 -0.245133E-05  0.277E-02    3.83       1.0  T
   5    -40.2338422 -0.184857E-05  0.479E-03    3.83       4.1  T
   6    -40.2338423 -0.439491E-07  0.204E-03    3.83       9.6  T
   7    -40.2338423 -0.977607E-08  0.719E-04    3.83      27.3  T
   8    -40.2338423 -0.193517E-08  0.287E-04    3.83      68.4  T
     SCC iter.                  ...        0 min,  0.005 sec
     gradient                   ...        0 min,  0.003 sec
 * total energy  :   -39.8093205 Eh     change       -0.6436307E-03 Eh
   gradient norm :     0.0280136 Eh/α   predicted    -0.1807930E-02 ( 180.90%)
   displ. norm   :     0.3620322 α      lambda       -0.3264114E-02
   maximum displ.:     0.2266725 α      in ANC's #2, #6, #3, ...

........................................................................
.............................. CYCLE   40 ..............................
........................................................................

 iter      E             dE          RMSdq      gap      omega  full diag
   1    -40.2197915 -0.402198E+02  0.222E-01    3.88       0.0  T
   2    -40.2203332 -0.541680E-03  0.151E-01    3.93       1.0  T
   3    -40.2203803 -0.470305E-04  0.833E-02    3.92       1.0  T
   4    -40.2203838 -0.355758E-05  0.131E-02    3.93       1.5  T
   5    -40.2203849 -0.105582E-05  0.525E-03    3.92       3.7  T
   6    -40.2203850 -0.142735E-06  0.253E-03    3.92       7.7  T
   7    -40.2203850 -0.207121E-07  0.676E-04    3.92      29.0  T
   8    -40.2203850 -0.211647E-08  0.275E-04    3.92      71.3  T
     SCC iter.                  ...        0 min,  0.005 sec
     gradient                   ...        0 min,  0.003 sec
 * total energy  :   -39.8101203 Eh     change       -0.7997085E-03 Eh
   gradient norm :     0.0382170 Eh/α   predicted    -0.1845967E-02 ( 130.83%)
   displ. norm   :     0.2024913 α      lambda       -0.2640150E-02
   maximum displ.:     0.0941170 α      in ANC's #1, #5, #16, ...

........................................................................
.............................. CYCLE   41 ..............................
........................................................................

 iter      E             dE          RMSdq      gap      omega  full diag
   1    -40.2177208 -0.402177E+02  0.138E-01    3.90       0.0  T
   2    -40.2179162 -0.195448E-03  0.732E-02    3.85       1.0  T
   3    -40.2179261 -0.984537E-05  0.392E-02    3.85       1.0  T
   4    -40.2179279 -0.184236E-05  0.114E-02    3.85       1.7  T
   5    -40.2179290 -0.103138E-05  0.315E-03    3.85       6.2  T
   6    -40.2179290 -0.354917E-07  0.117E-03    3.85      16.7  T
   7    -40.2179290 -0.239124E-08  0.371E-04    3.85      52.8  T
   8    -40.2179290 -0.887944E-09  0.144E-04    3.85     136.1  T
     SCC iter.                  ...        0 min,  0.005 sec
     gradient                   ...        0 min,  0.003 sec
 * total energy  :   -39.8110125 Eh     change       -0.8922142E-03 Eh
   gradient norm :     0.0237410 Eh/α   predicted    -0.1374201E-02 (  54.02%)
   displ. norm   :     0.3509521 α      lambda       -0.1943306E-02
   maximum displ.:     0.1706463 α      in ANC's #1, #2, #3, ...

........................................................................
.............................. CYCLE   42 ..............................
........................................................................

 iter      E             dE          RMSdq      gap      omega  full diag
   1    -40.2223038 -0.402223E+02  0.234E-01    3.95       0.0  T
   2    -40.2227015 -0.397694E-03  0.144E-01    3.98       1.0  T
   3    -40.2227294 -0.279175E-04  0.724E-02    3.98       1.0  T
   4    -40.2227367 -0.728480E-05  0.144E-02    3.98       1.4  T
   5    -40.2227379 -0.120540E-05  0.706E-03    3.98       2.8  T
   6    -40.2227381 -0.171896E-06  0.296E-03    3.98       6.6  T
   7    -40.2227381 -0.230455E-07  0.663E-04    3.98      29.6  T
   8    -40.2227381 -0.192676E-08  0.320E-04    3.98      61.2  T
     SCC iter.                  ...        0 min,  0.005 sec
     gradient                   ...        0 min,  0.003 sec
 * total energy  :   -39.8110374 Eh     change       -0.2490658E-04 Eh
   gradient norm :     0.0345824 Eh/α   predicted    -0.1091336E-02 (4281.72%)
   displ. norm   :     0.2472588 α      lambda       -0.3767915E-02
   maximum displ.:     0.1095121 α      in ANC's #5, #2, #13, ...
 * RMSD in coord.:     1.2312440 α      energy gain  -0.1561834E-01 Eh

generating ANC from model Hessian ...
Using Lindh-Hessian (1995)
 Shifting diagonal of input Hessian by   7.611471347191470E-003
 Lowest  eigenvalues of input Hessian
    0.000000    0.000000    0.000000    0.000000    0.000000    0.000000
    0.010000    0.011539    0.013000    0.016024    0.017679    0.020589
    0.022189    0.026051    0.027350    0.027893    0.031397    0.033753
 Highest eigenvalues
    1.465536    1.512711    1.629115    1.858740    2.284465    2.304847
 

........................................................................
.............................. CYCLE   43 ..............................
........................................................................

 iter      E             dE          RMSdq      gap      omega  full diag
   1    -40.2322650 -0.402323E+02  0.207E-01    4.13       0.0  T
   2    -40.2329019 -0.636931E-03  0.117E-01    4.20       1.0  T
   3    -40.2329338 -0.318532E-04  0.652E-02    4.22       1.0  T
   4    -40.2329354 -0.157147E-05  0.172E-02    4.22       1.1  T
   5    -40.2329367 -0.137546E-05  0.487E-03    4.22       4.0  T
   6    -40.2329368 -0.894529E-07  0.188E-03    4.22      10.4  T
   7    -40.2329368 -0.804527E-08  0.546E-04    4.22      35.9  T
   8    -40.2329368 -0.160755E-08  0.162E-04    4.22     120.9  T
     SCC iter.                  ...        0 min,  0.005 sec
     gradient                   ...        0 min,  0.003 sec
 * total energy  :   -39.8114636 Eh     change       -0.4262535E-03 Eh
   gradient norm :     0.0357997 Eh/α   predicted     0.0000000E+00 (-100.00%)
   displ. norm   :     0.1547022 α      lambda       -0.2382361E-02
   maximum displ.:     0.0500140 α      in ANC's #14, #15, #1, ...

........................................................................
.............................. CYCLE   44 ..............................
........................................................................

 iter      E             dE          RMSdq      gap      omega  full diag
   1    -40.2264301 -0.402264E+02  0.957E-02    4.18       0.0  T
   2    -40.2264734 -0.432933E-04  0.583E-02    4.20       1.0  T
   3    -40.2264754 -0.196879E-05  0.252E-02    4.19       1.0  T
   4    -40.2264765 -0.105066E-05  0.558E-03    4.20       3.5  T
   5    -40.2264767 -0.283785E-06  0.216E-03    4.20       9.1  T
   6    -40.2264767 -0.465182E-08  0.723E-04    4.20      27.1  T
   7    -40.2264767 -0.254960E-08  0.172E-04    4.20     113.8  T
     SCC iter.                  ...        0 min,  0.004 sec
     gradient                   ...        0 min,  0.004 sec
 * total energy  :   -39.8130216 Eh     change       -0.1558012E-02 Eh
   gradient norm :     0.0188290 Eh/α   predicted    -0.1219756E-02 ( -21.71%)
   displ. norm   :     0.1574220 α      lambda       -0.8683177E-03
   maximum displ.:     0.0981513 α      in ANC's #1, #2, #7, ...

........................................................................
.............................. CYCLE   45 ..............................
........................................................................

 iter      E             dE          RMSdq      gap      omega  full diag
   1    -40.2228520 -0.402229E+02  0.665E-02    4.19       0.0  T
   2    -40.2228796 -0.276489E-04  0.417E-02    4.21       1.0  T
   3    -40.2228808 -0.122465E-05  0.199E-02    4.20       1.0  T
   4    -40.2228812 -0.333849E-06  0.344E-03    4.21       5.7  T
   5    -40.2228813 -0.953994E-07  0.146E-03    4.21      13.4  T
   6    -40.2228813 -0.350145E-08  0.506E-04    4.21      38.8  T
   7    -40.2228813 -0.147159E-08  0.168E-04    4.21     116.6  T
     SCC iter.                  ...        0 min,  0.005 sec
     gradient                   ...        0 min,  0.003 sec
 * total energy  :   -39.8136309 Eh     change       -0.6092443E-03 Eh
   gradient norm :     0.0146447 Eh/α   predicted    -0.4453216E-03 ( -26.91%)
   displ. norm   :     0.1927220 α      lambda       -0.6943063E-03
   maximum displ.:     0.1289959 α      in ANC's #1, #2, #8, ...

........................................................................
.............................. CYCLE   46 ..............................
........................................................................

 iter      E             dE          RMSdq      gap      omega  full diag
   1    -40.2212954 -0.402213E+02  0.758E-02    4.23       0.0  T
   2    -40.2213210 -0.256396E-04  0.475E-02    4.25       1.0  T
   3    -40.2213224 -0.139111E-05  0.195E-02    4.25       1.0  T
   4    -40.2213231 -0.734650E-06  0.388E-03    4.25       5.1  T
   5    -40.2213232 -0.775603E-07  0.175E-03    4.25      11.2  T
   6    -40.2213232 -0.617931E-08  0.645E-04    4.25      30.4  T
   7    -40.2213232 -0.109417E-08  0.212E-04    4.25      92.7  T
     SCC iter.                  ...        0 min,  0.005 sec
     gradient                   ...        0 min,  0.003 sec
 * total energy  :   -39.8141872 Eh     change       -0.5563494E-03 Eh
   gradient norm :     0.0190655 Eh/α   predicted    -0.3600507E-03 ( -35.28%)
   displ. norm   :     0.3750171 α      lambda       -0.1404906E-02
   maximum displ.:     0.2520510 α      in ANC's #1, #2, #8, ...

........................................................................
.............................. CYCLE   47 ..............................
........................................................................

 iter      E             dE          RMSdq      gap      omega  full diag
   1    -40.2198776 -0.402199E+02  0.161E-01    4.32       0.0  T
   2    -40.2200227 -0.145130E-03  0.999E-02    4.38       1.0  T
   3    -40.2200319 -0.914030E-05  0.422E-02    4.39       1.0  T
   4    -40.2200352 -0.329027E-05  0.115E-02    4.39       1.7  T
   5    -40.2200359 -0.701023E-06  0.425E-03    4.39       4.6  T
   6    -40.2200359 -0.464830E-07  0.196E-03    4.39      10.0  T
   7    -40.2200359 -0.108583E-07  0.543E-04    4.39      36.2  T
   8    -40.2200359 -0.141144E-08  0.233E-04    4.39      84.3  T
     SCC iter.                  ...        0 min,  0.005 sec
     gradient                   ...        0 min,  0.003 sec
 * total energy  :   -39.8153685 Eh     change       -0.1181223E-02 Eh
   gradient norm :     0.0333107 Eh/α   predicted    -0.8012610E-03 ( -32.17%)
   displ. norm   :     0.5761088 α      lambda       -0.2988032E-02
   maximum displ.:     0.3698415 α      in ANC's #1, #2, #33, ...

........................................................................
.............................. CYCLE   48 ..............................
........................................................................

 iter      E             dE          RMSdq      gap      omega  full diag
   1    -40.2208737 -0.402209E+02  0.292E-01    4.50       0.0  T
   2    -40.2214135 -0.539783E-03  0.176E-01    4.62       1.0  T
   3    -40.2214585 -0.450569E-04  0.767E-02    4.64       1.0  T
   4    -40.2214664 -0.787519E-05  0.242E-02    4.66       1.0  T
   5    -40.2214697 -0.332700E-05  0.886E-03    4.65       2.2  T
   6    -40.2214699 -0.196101E-06  0.389E-03    4.65       5.0  T
   7    -40.2214700 -0.456327E-07  0.104E-03    4.65      18.8  T
   8    -40.2214700 -0.414728E-08  0.431E-04    4.65      45.5  T
   9    -40.2214700 -0.886345E-09  0.154E-04    4.65     127.6  T
     SCC iter.                  ...        0 min,  0.006 sec
     gradient                   ...        0 min,  0.003 sec
 * total energy  :   -39.8175321 Eh     change       -0.2163603E-02 Eh
   gradient norm :     0.0608950 Eh/α   predicted    -0.1989884E-02 (  -8.03%)
   displ. norm   :     0.2393368 α      lambda       -0.3651763E-02
   maximum displ.:     0.1042959 α      in ANC's #1, #33, #52, ...

........................................................................
.............................. CYCLE   49 ..............................
........................................................................

 iter      E             dE          RMSdq      gap      omega  full diag
   1    -40.2360385 -0.402360E+02  0.182E-01    4.72       0.0  T
   2    -40.2362209 -0.182437E-03  0.108E-01    4.79       1.0  T
   3    -40.2362407 -0.197901E-04  0.466E-02    4.81       1.0  T
   4    -40.2362439 -0.320020E-05  0.156E-02    4.82       1.3  T
   5    -40.2362459 -0.197767E-05  0.595E-03    4.82       3.3  T
   6    -40.2362460 -0.687871E-07  0.226E-03    4.82       8.7  T
   7    -40.2362460 -0.132802E-07  0.584E-04    4.82      33.6  T
   8    -40.2362460 -0.977472E-09  0.204E-04    4.82      96.2  T
     SCC iter.                  ...        0 min,  0.005 sec
     gradient                   ...        0 min,  0.003 sec
 * total energy  :   -39.8193268 Eh     change       -0.1794785E-02 Eh
   gradient norm :     0.0576270 Eh/α   predicted    -0.1930473E-02 (   7.56%)
   displ. norm   :     0.1789631 α      lambda       -0.4526369E-02
   maximum displ.:     0.0836157 α      in ANC's #1, #2, #7, ...

........................................................................
.............................. CYCLE   50 ..............................
........................................................................

 iter      E             dE          RMSdq      gap      omega  full diag
   1    -40.2438372 -0.402438E+02  0.133E-01    4.82       0.0  T
   2    -40.2439459 -0.108715E-03  0.761E-02    4.85       1.0  T
   3    -40.2439494 -0.351429E-05  0.379E-02    4.86       1.0  T
   4    -40.2439504 -0.994569E-06  0.924E-03    4.86       2.1  T
   5    -40.2439516 -0.126203E-05  0.339E-03    4.86       5.8  T
   6    -40.2439517 -0.217406E-07  0.119E-03    4.86      16.5  T
   7    -40.2439517 -0.214975E-08  0.336E-04    4.86      58.3  T
   8    -40.2439517 -0.813621E-09  0.139E-04    4.86     141.1  T
     SCC iter.                  ...        0 min,  0.005 sec
     gradient                   ...        0 min,  0.003 sec
 * total energy  :   -39.8216310 Eh     change       -0.2304188E-02 Eh
   gradient norm :     0.0318936 Eh/α   predicted    -0.2335674E-02 (   1.37%)
   displ. norm   :     0.3679308 α      lambda       -0.3551276E-02
   maximum displ.:     0.2173791 α      in ANC's #1, #9, #2, ...

........................................................................
.............................. CYCLE   51 ..............................
........................................................................

 iter      E             dE          RMSdq      gap      omega  full diag
   1    -40.2370678 -0.402371E+02  0.162E-01    4.83       0.0  T
   2    -40.2371839 -0.116145E-03  0.968E-02    4.90       1.0  T
   3    -40.2371911 -0.722877E-05  0.399E-02    4.92       1.0  T
   4    -40.2371954 -0.424949E-05  0.142E-02    4.93       1.4  T
   5    -40.2371979 -0.253078E-05  0.397E-03    4.92       4.9  T
   6    -40.2371979 -0.229800E-07  0.183E-03    4.92      10.7  T
   7    -40.2371979 -0.602655E-08  0.510E-04    4.92      38.5  T
   8    -40.2371979 -0.168937E-08  0.216E-04    4.92      90.8  T
     SCC iter.                  ...        0 min,  0.005 sec
     gradient                   ...        0 min,  0.003 sec
 * total energy  :   -39.8232812 Eh     change       -0.1650185E-02 Eh
   gradient norm :     0.0200552 Eh/α   predicted    -0.2016014E-02 (  22.17%)
   displ. norm   :     0.1447519 α      lambda       -0.9219656E-03
   maximum displ.:     0.0768552 α      in ANC's #1, #2, #10, ...

........................................................................
.............................. CYCLE   52 ..............................
........................................................................

 iter      E             dE          RMSdq      gap      omega  full diag
   1    -40.2381653 -0.402382E+02  0.653E-02    4.89       0.0  T
   2    -40.2381759 -0.105368E-04  0.393E-02    4.90       1.0  T
   3    -40.2381754  0.507099E-06  0.169E-02    4.90       1.2  T
   4    -40.2381780 -0.260368E-05  0.389E-03    4.91       5.0  T
   5    -40.2381780 -0.825563E-07  0.118E-03    4.91      16.6  T
   6    -40.2381780 -0.522002E-08  0.536E-04    4.91      36.6  T
   7    -40.2381780 -0.631985E-09  0.127E-04    4.91     153.9  T
     SCC iter.                  ...        0 min,  0.005 sec
     gradient                   ...        0 min,  0.003 sec
 * total energy  :   -39.8239512 Eh     change       -0.6700141E-03 Eh
   gradient norm :     0.0118318 Eh/α   predicted    -0.4706468E-03 ( -29.76%)
   displ. norm   :     0.2600029 α      lambda       -0.9117713E-03
   maximum displ.:     0.1473519 α      in ANC's #1, #2, #5, ...

........................................................................
.............................. CYCLE   53 ..............................
........................................................................

 iter      E             dE          RMSdq      gap      omega  full diag
   1    -40.2393981 -0.402394E+02  0.101E-01    4.87       0.0  T
   2    -40.2394227 -0.245629E-04  0.586E-02    4.89       1.0  T
   3    -40.2394217  0.973096E-06  0.267E-02    4.89       1.0  T
   4    -40.2394272 -0.552280E-05  0.556E-03    4.89       3.5  T
   5    -40.2394275 -0.206378E-06  0.194E-03    4.89      10.1  T
   6    -40.2394275 -0.162012E-07  0.808E-04    4.89      24.3  T
   7    -40.2394275 -0.147580E-08  0.243E-04    4.89      80.9  T
     SCC iter.                  ...        0 min,  0.005 sec
     gradient                   ...        0 min,  0.003 sec
 * total energy  :   -39.8244503 Eh     change       -0.4990793E-03 Eh
   gradient norm :     0.0132120 Eh/α   predicted    -0.4867212E-03 (  -2.48%)
   displ. norm   :     0.2052041 α      lambda       -0.5114917E-03
   maximum displ.:     0.1342229 α      in ANC's #1, #2, #3, ...

........................................................................
.............................. CYCLE   54 ..............................
........................................................................

 iter      E             dE          RMSdq      gap      omega  full diag
   1    -40.2397176 -0.402397E+02  0.680E-02    4.87       0.0  T
   2    -40.2397270 -0.946788E-05  0.413E-02    4.89       1.0  T
   3    -40.2397265  0.502975E-06  0.147E-02    4.89       1.3  T
   4    -40.2397287 -0.213622E-05  0.431E-03    4.89       4.6  T
   5    -40.2397288 -0.119759E-06  0.145E-03    4.89      13.5  T
   6    -40.2397288 -0.857079E-08  0.691E-04    4.89      28.4  T
   7    -40.2397288 -0.109765E-08  0.166E-04    4.89     118.0  T
     SCC iter.                  ...        0 min,  0.004 sec
     gradient                   ...        0 min,  0.003 sec
 * total energy  :   -39.8247792 Eh     change       -0.3289045E-03 Eh
   gradient norm :     0.0121973 Eh/α   predicted    -0.2665183E-03 ( -18.97%)
   displ. norm   :     0.2290312 α      lambda       -0.4620999E-03
   maximum displ.:     0.1205272 α      in ANC's #1, #2, #3, ...

........................................................................
.............................. CYCLE   55 ..............................
........................................................................

 iter      E             dE          RMSdq      gap      omega  full diag
   1    -40.2405519 -0.402406E+02  0.683E-02    4.89       0.0  T
   2    -40.2405578 -0.588017E-05  0.415E-02    4.91       1.0  T
   3    -40.2405582 -0.462311E-06  0.870E-03    4.92       2.3  T
   4    -40.2405588 -0.607949E-06  0.333E-03    4.92       5.9  T
   5    -40.2405589 -0.518471E-07  0.128E-03    4.91      15.3  T
   6    -40.2405589 -0.841098E-08  0.616E-04    4.91      31.8  T
   7    -40.2405589 -0.139891E-08  0.149E-04    4.91     132.0  T
     SCC iter.                  ...        0 min,  0.004 sec
     gradient                   ...        0 min,  0.003 sec
 * total energy  :   -39.8251504 Eh     change       -0.3711708E-03 Eh
   gradient norm :     0.0106215 Eh/α   predicted    -0.2431733E-03 ( -34.48%)
   displ. norm   :     0.3921768 α      lambda       -0.7332414E-03
   maximum displ.:     0.1754527 α      in ANC's #1, #2, #3, ...

........................................................................
.............................. CYCLE   56 ..............................
........................................................................

 iter      E             dE          RMSdq      gap      omega  full diag
   1    -40.2398080 -0.402398E+02  0.117E-01    4.91       0.0  T
   2    -40.2398257 -0.176646E-04  0.708E-02    4.93       1.0  T
   3    -40.2398230  0.269816E-05  0.252E-02    4.95       1.0  T
[...]
C8-N9=1.4487         C8-H21=1.0890        C8-H22=1.0948        N9-C4=1.4673         N9-C8=1.4487         N9-C10=1.3630        
C10-N9=1.3630        C10-N11=1.3815       C10-N12=1.2855       N11-C10=1.3815       N11-H23=1.0082       N11-H24=1.0066       
N12-C10=1.2855       N12-H25=1.0136       H13-C1=1.0914        H14-C1=1.0891        H15-C2=1.0902        H16-C2=1.0897        
H17-C3=1.1027        H18-O6=0.9746        H19-N7=1.0141        H20-N7=1.0147        H21-C8=1.0890        H22-C8=1.0948        
H23-N11=1.0082       H24-N11=1.0066       H25-N12=1.0136       H26-O5=0.9766        
 C  H  Rav=1.0924 sigma=0.0046  Rmin=1.0890  Rmax=1.1027     7
 C  C  Rav=1.5349 sigma=0.0052  Rmin=1.5307  Rmax=1.5436     4
 N  H  Rav=1.0114 sigma=0.0034  Rmin=1.0066  Rmax=1.0147     5
 N  C  Rav=1.4001 sigma=0.0641  Rmin=1.2855  Rmax=1.4673     6
 O  H  Rav=0.9756 sigma=0.0010  Rmin=0.9746  Rmax=0.9766     2
 O  C  Rav=1.3888 sigma=0.0016  Rmin=1.3872  Rmax=1.3905     2
 
 selected bond angles (degree)
 --------------------
C8-C1-C2=110.02                H13-C1-C2=109.43               H13-C1-C8=110.61               H14-C1-C2=110.33               
H14-C1-C8=108.19               H14-C1-H13=108.24              C3-C2-C1=111.13                H15-C2-C1=110.39               
H15-C2-C3=106.96               H16-C2-C1=110.39               H16-C2-C3=109.47               H16-C2-H15=108.40              
C4-C3-C2=108.51                N7-C3-C2=111.00                N7-C3-C4=111.36                H17-C3-C2=108.73               
H17-C3-C4=104.28               H17-C3-N7=112.68               O5-C4-C3=106.63                O6-C4-C3=109.69                
O6-C4-O5=111.11                N9-C4-C3=110.04                N9-C4-O5=108.83                N9-C4-O6=110.46                
H26-O5-C4=105.88               H18-O6-C4=105.69               H19-N7-C3=109.54               H20-N7-C3=108.70               
H20-N7-H19=108.18              N9-C8-C1=109.87                H21-C8-C1=111.40               H21-C8-N9=110.39               
H22-C8-C1=108.62               H22-C8-N9=107.99               H22-C8-H21=108.47              C8-N9-C4=115.14                
C10-N9-C4=116.88               C10-N9-C8=124.52               N11-C10-N9=117.13              N12-C10-N9=118.79              
N12-C10-N11=124.07             
 
 selected dihedral angles (degree)
 ---------------------------------
C3-C2-C1-C8= 24.35            C3-C2-C1-H13=146.06           C3-C2-C1-H14=265.05           H15-C2-C1-C8=265.83           
H15-C2-C1-H13= 27.54          H15-C2-C1-H14=146.53          H16-C2-C1-C8=146.01           H16-C2-C1-H13=267.72          
H16-C2-C1-H14= 26.71          C4-C3-C2-C1=294.98            C4-C3-C2-H15= 55.55           C4-C3-C2-H16=172.79           
N7-C3-C2-C1= 57.65            N7-C3-C2-H15=178.22           N7-C3-C2-H16=295.46           H17-C3-C2-C1=182.14           
H17-C3-C2-H15=302.71          H17-C3-C2-H16= 59.95          O5-C4-C3-C2=281.48            O5-C4-C3-N7=159.03            
O5-C4-C3-H17= 37.24           O6-C4-C3-C2=161.08            O6-C4-C3-N7= 38.62            O6-C4-C3-H17=276.84           
N9-C4-C3-C2= 39.36            N9-C4-C3-N7=276.90            N9-C4-C3-H17=155.12           H26-O5-C4-C3=179.25           
H26-O5-C4-O6=298.73           H26-O5-C4-N9= 60.58           H18-O6-C4-C3=178.79           H18-O6-C4-O5= 61.15           
H18-O6-C4-N9=300.26           H19-N7-C3-C2= 78.37           H19-N7-C3-C4=199.37           H19-N7-C3-H17=316.15          
H20-N7-C3-C2=196.38           H20-N7-C3-C4=317.38           H20-N7-C3-H17= 74.15          N9-C8-C1-C2= 37.80            
N9-C8-C1-H13=276.79           N9-C8-C1-H14=158.40           H21-C8-C1-C2=160.46           H21-C8-C1-H13= 39.45          
H21-C8-C1-H14=281.05          H22-C8-C1-C2=279.87           H22-C8-C1-H13=158.86          H22-C8-C1-H14= 40.47          
C8-N9-C4-C3= 24.31            C8-N9-C4-O5=140.82            C8-N9-C4-O6=263.05            C10-N9-C4-C3=184.32           
C10-N9-C4-O5=300.83           C10-N9-C4-O6= 63.06           C4-N9-C8-C1=293.30            C4-N9-C8-H21=170.06           
C4-N9-C8-H22= 51.62           C10-N9-C8-C1=135.02           C10-N9-C8-H21= 11.78          C10-N9-C8-H22=253.34          
N11-C10-N9-C4=178.17          N11-C10-N9-C8=336.11          N12-C10-N9-C4=357.89          N12-C10-N9-C8=155.83          
           -------------------------------------------------
          |                Final Singlepoint                |
           -------------------------------------------------

          ...................................................
          :                      SETUP                      :
          :.................................................:
          :  # basis functions                  62          :
          :  # atomic orbitals                  62          :
          :  # shells                           38          :
          :  # electrons                        70          :
          :  max. iterations                   250          :
          :  Hamiltonian                  GFN2-xTB          :
          :  restarted?                      false          :
          :  GBSA solvation                  false          :
          :  PC potential                    false          :
          :  electronic temp.          300.0000000     K    :
          :  accuracy                    1.0000000          :
          :  -> integral cutoff          0.2500000E+02      :
          :  -> integral neglect         0.1000000E-07      :
          :  -> SCF convergence          0.1000000E-05 Eh   :
          :  -> wf. convergence          0.1000000E-03 e    :
          :  Broyden damping             0.4000000          :
          ...................................................

 iter      E             dE          RMSdq      gap      omega  full diag
   1    -40.2473326 -0.402473E+02  0.184E-05    4.79       0.0  T
   2    -40.2473326 -0.987654E-12  0.100E-05    4.79    1960.3  T
   3    -40.2473326 -0.426326E-13  0.418E-06    4.79    4690.9  T

   *** convergence criteria satisfied after 3 iterations ***

         #    Occupation            Energy/Eh            Energy/eV
      -------------------------------------------------------------
         1        2.0000           -0.6968693             -18.9628
       ...           ...                  ...                  ...
        29        2.0000           -0.4314328             -11.7399
        30        2.0000           -0.4256030             -11.5812
        31        2.0000           -0.4219090             -11.4807
        32        2.0000           -0.4007888             -10.9060
        33        2.0000           -0.3810117             -10.3679
        34        2.0000           -0.3719374             -10.1209
        35        2.0000           -0.3605683              -9.8116 (HOMO)
        36                         -0.1847171              -5.0264 (LUMO)
        37                         -0.0134906              -0.3671
        38                          0.0302301               0.8226
        39                          0.0391936               1.0665
        40                          0.0582516               1.5851
       ...                                ...                  ...
        62                          0.5531760              15.0527
      -------------------------------------------------------------
                  HL-Gap            0.1758512 Eh            4.7852 eV
             Fermi-level           -0.2726427 Eh           -7.4190 eV

 SCC (total)                   0 d,  0 h,  0 min,  0.006 sec
 SCC setup                      ...        0 min,  0.000 sec (  1.404%)
 Dispersion                     ...        0 min,  0.000 sec (  1.207%)
 classical contributions        ...        0 min,  0.000 sec (  0.213%)
 integral evaluation            ...        0 min,  0.001 sec ( 14.654%)
 iterations                     ...        0 min,  0.002 sec ( 36.815%)
 molecular gradient             ...        0 min,  0.003 sec ( 44.044%)
 printout                       ...        0 min,  0.000 sec (  1.321%)

         :::::::::::::::::::::::::::::::::::::::::::::::::::::
         ::                     SUMMARY                     ::
         :::::::::::::::::::::::::::::::::::::::::::::::::::::
         :: total energy             -39.829373968713 Eh    ::
         :: gradient norm              0.000049049443 Eh/a0 ::
         :: HOMO-LUMO gap              4.785154889811 eV    ::
         ::.................................................::
         :: SCC energy               -40.247332589191 Eh    ::
         :: -> isotropic ES            0.099644210533 Eh    ::
         :: -> anisotropic ES         -0.005456488001 Eh    ::
         :: -> anisotropic XC          0.014695450911 Eh    ::
         :: -> dispersion             -0.023567960071 Eh    ::
         :: repulsion energy           0.417722365444 Eh    ::
         :: add. restraining           0.000000000000 Eh    ::
         :: total charge              -0.000000000000 e     ::
         :::::::::::::::::::::::::::::::::::::::::::::::::::::

           -------------------------------------------------
          |                Property Printout                |
           -------------------------------------------------

    * Orbital Energies and Occupations

         #    Occupation            Energy/Eh            Energy/eV
      -------------------------------------------------------------
         1        2.0000           -0.6968693             -18.9628
       ...           ...                  ...                  ...
        23        2.0000           -0.4849972             -13.1974
        24        2.0000           -0.4810731             -13.0907
        25        2.0000           -0.4683412             -12.7442
        26        2.0000           -0.4623851             -12.5821
        27        2.0000           -0.4491047             -12.2208
        28        2.0000           -0.4397599             -11.9665
        29        2.0000           -0.4314328             -11.7399
        30        2.0000           -0.4256030             -11.5812
        31        2.0000           -0.4219090             -11.4807
        32        2.0000           -0.4007888             -10.9060
        33        2.0000           -0.3810117             -10.3679
        34        2.0000           -0.3719374             -10.1209
        35        2.0000           -0.3605683              -9.8116 (HOMO)
        36                         -0.1847171              -5.0264 (LUMO)
        37                         -0.0134906              -0.3671
        38                          0.0302301               0.8226
        39                          0.0391936               1.0665
        40                          0.0582516               1.5851
        41                          0.0630945               1.7169
        42                          0.0783633               2.1324
        43                          0.0986014               2.6831
        44                          0.1088849               2.9629
        45                          0.1240829               3.3765
        46                          0.1334563               3.6315
       ...                                ...                  ...
        62                          0.5531760              15.0527
      -------------------------------------------------------------
                  HL-Gap            0.1758512 Eh            4.7852 eV
             Fermi-level           -0.2726427 Eh           -7.4190 eV

     #   Z          covCN         q      C6AA      α(0)
     1   6 C        3.804    -0.065    21.745     6.639
     2   6 C        3.808    -0.069    21.817     6.649
     3   6 C        3.784     0.051    19.739     6.328
     4   6 C        3.611     0.329    16.128     5.799
     5   8 O        1.657    -0.468    22.223     6.364
     6   8 O        1.656    -0.468    22.215     6.363
     7   7 N        2.631    -0.348    28.967     7.993
     8   6 C        3.746    -0.005    20.727     6.494
     9   7 N        2.751    -0.163    24.525     7.355
    10   6 C        2.749     0.238    23.027     7.858
    11   7 N        2.641    -0.311    27.999     7.859
    12   7 N        1.790    -0.468    33.356     8.555
    13   1 H        0.924     0.037     2.489     2.467
    14   1 H        0.925     0.051     2.308     2.376
    15   1 H        0.925     0.052     2.295     2.369
    16   1 H        0.925     0.044     2.397     2.421
    17   1 H        0.923     0.029     2.594     2.519
    18   1 H        0.804     0.325     0.650     1.267
    19   1 H        0.860     0.143     1.446     1.884
    20   1 H        0.860     0.163     1.319     1.799
    21   1 H        0.925     0.046     2.366     2.406
    22   1 H        0.924     0.071     2.073     2.252
    23   1 H        0.860     0.169     1.278     1.771
    24   1 H        0.860     0.170     1.275     1.769
    25   1 H        0.860     0.122     1.610     1.987
    26   1 H        0.804     0.325     0.651     1.267

 Mol. C6AA /au·bohr⁶  :       5785.595613
 Mol. C8AA /au·bohr⁸  :     123658.465225
 Mol. α(0) /au        :        112.808888


Wiberg/Mayer (AO) data.
largest (>0.10) Wiberg bond orders for each atom

 ---------------------------------------------------------------------------
     #   Z sym  total        # sym  WBO       # sym  WBO       # sym  WBO
 ---------------------------------------------------------------------------
     1   6 C    3.996 --     2 C    1.004     8 C    0.999    13 H    0.981
                            14 H    0.978
     2   6 C    3.996 --     1 C    1.004     3 C    0.993    16 H    0.978
                            15 H    0.977
     3   6 C    3.986 --     7 N    1.020     2 C    0.993    17 H    0.958
                             4 C    0.951
     4   6 C    3.931 --     5 O    1.001     6 O    0.993     3 C    0.951
                             9 N    0.929
     5   8 O    1.972 --     4 C    1.001    26 H    0.839
     6   8 O    1.978 --     4 C    0.993    18 H    0.846
     7   7 N    3.004 --     3 C    1.020    19 H    0.965    20 H    0.953
     8   6 C    3.969 --     1 C    0.999     9 N    0.983    21 H    0.967
                            22 H    0.959
     9   7 N    3.397 --    10 C    1.183     8 C    0.983     4 C    0.929
                            12 N    0.122
    10   6 C    3.963 --    12 N    1.596     9 N    1.183    11 N    1.133
    11   7 N    3.231 --    10 C    1.133    23 H    0.951    24 H    0.944
                            12 N    0.129
    12   7 N    2.936 --    10 C    1.596    25 H    0.954    11 N    0.129
                             9 N    0.122
    13   1 H    0.999 --     1 C    0.981
    14   1 H    0.997 --     1 C    0.978
    15   1 H    0.997 --     2 C    0.977
    16   1 H    0.998 --     2 C    0.978
    17   1 H    0.999 --     3 C    0.958
    18   1 H    0.894 --     6 O    0.846
    19   1 H    0.979 --     7 N    0.965
    20   1 H    0.974 --     7 N    0.953
    21   1 H    0.998 --     8 C    0.967
    22   1 H    0.995 --     8 C    0.959
    23   1 H    0.971 --    11 N    0.951
    24   1 H    0.971 --    11 N    0.944
    25   1 H    0.985 --    12 N    0.954
    26   1 H    0.894 --     5 O    0.839
 ---------------------------------------------------------------------------

Topologies differ in total number of bonds
Writing topology from bond orders to xtbtopo.mol

molecular dipole:
                 x           y           z       tot (Debye)
 q only:        1.154       0.358       0.190
   full:        1.472      -0.122       0.031       3.756
molecular quadrupole (traceless):
                xx          xy          yy          xz          yz          zz
 q only:        0.450      -8.527       2.696      -2.753      -0.594      -3.146
  q+dip:        0.467     -14.443       8.002      -4.710       0.628      -8.468
   full:       -0.177     -14.279       8.229      -4.917       0.534      -8.052

           -------------------------------------------------
          |                Geometry Summary                 |
           -------------------------------------------------

      molecular mass/u    :      174.2012086
   center of mass at/Å    :       -0.6606114      -1.3546105      -0.4356437
  moments of inertia/u·Å² :        0.3526635E+03   0.5689884E+03   0.7273944E+03
rotational constants/cm⁻¹ :        0.4780091E-01   0.2962738E-01   0.2317537E-01

 * 24 selected distances

     #   Z          #   Z                                           value/Å
     1   6 C        2   6 C                                       1.5341748 (max)
     2   6 C        3   6 C                                       1.5306528
     4   6 C        5   8 O                                       1.3871792
     4   6 C        6   8 O                                       1.3904693
     3   6 C        7   7 N                                       1.4543652
     1   6 C        8   6 C                                       1.5310621
     4   6 C        9   7 N                                       1.4673018
     8   6 C        9   7 N                                       1.4486728
     9   7 N       10   6 C                                       1.3629746
    10   6 C       11   7 N                                       1.3814689
    10   6 C       12   7 N                                       1.2855462
     1   6 C       13   1 H                                       1.0913753
     1   6 C       14   1 H                                       1.0890709
     2   6 C       15   1 H                                       1.0901549
     2   6 C       16   1 H                                       1.0897338
     3   6 C       17   1 H                                       1.1027117
     6   8 O       18   1 H                                       0.9746359 (min)
     7   7 N       19   1 H                                       1.0140803
     7   7 N       20   1 H                                       1.0146659
     8   6 C       21   1 H                                       1.0889513
     8   6 C       22   1 H                                       1.0948391
    11   7 N       23   1 H                                       1.0081863
    11   7 N       24   1 H                                       1.0066144
     5   8 O       26   1 H                                       0.9765875

 * 6 distinct bonds (by element types)

   Z      Z             #   av. dist./Å        max./Å        min./Å
   1 H    6 C           7     1.0924053     1.1027117     1.0889513
   6 C    6 C           3     1.5319632     1.5341748     1.5306528
   1 H    7 N           4     1.0108867     1.0146659     1.0066144
   6 C    7 N           6     1.4000549     1.4673018     1.2855462
   1 H    8 O           2     0.9756117     0.9765875     0.9746359
   6 C    8 O           2     1.3888242     1.3904693     1.3871792


optimized geometry written to: xtbopt.xyz


           -------------------------------------------------
          | TOTAL ENERGY              -39.829373968713 Eh   |
          | GRADIENT NORM               0.000049049443 Eh/α |
          | HOMO-LUMO GAP               4.785154889811 eV   |
           -------------------------------------------------

------------------------------------------------------------------------
 * finished run on 2025/07/30 at 12:16:28.115     
------------------------------------------------------------------------
 total:
 * wall-time:     0 d,  0 h,  0 min,  1.370 sec
 *  cpu-time:     0 d,  0 h,  0 min,  9.931 sec
 * ratio c/w:     7.249 speedup
 SCF:
 * wall-time:     0 d,  0 h,  0 min,  0.046 sec
 *  cpu-time:     0 d,  0 h,  0 min,  0.302 sec
 * ratio c/w:     6.537 speedup
 ANC optimizer:
 * wall-time:     0 d,  0 h,  0 min,  1.308 sec
 *  cpu-time:     0 d,  0 h,  0 min,  9.569 sec
 * ratio c/w:     7.314 speedup

