26
 energy: -39.722818684838 gnorm: 0.203086573303 xtb: 6.6.0 (8843059)
C            0.41590000000000       -0.24150000000000       -0.03110000000000
C           -0.48530000000000        0.03400000000000       -1.15530000000000
C           -1.92000000000000        0.31980000000000       -0.84380000000000
C           -2.62440000000000       -0.77750000000000       -0.16010000000000
O           -2.63210000000000       -1.91280000000000       -0.69560000000000
O           -3.29200000000000       -0.64110000000000        1.05360000000000
N           -2.06860000000000        1.54750000000000       -0.06400000000000
C            0.18630000000000       -1.39470000000000        0.84560000000000
N            0.21080000000000       -2.69040000000000        0.25130000000000
C            0.89890000000000       -3.10010000000000       -0.71410000000000
N            1.83510000000000       -2.32870000000000       -1.44670000000000
N            0.72600000000000       -4.47450000000000       -1.11720000000000
H            1.48550000000000       -0.23900000000000       -0.36820000000000
H            0.37540000000000        0.67480000000000        0.64230000000000
H           -0.48740000000000       -0.73870000000000       -1.95670000000000
H           -0.06380000000000        0.94280000000000       -1.68840000000000
H           -2.47460000000000        0.48810000000000       -1.81040000000000
H           -3.53120000000000       -1.45490000000000        1.62910000000000
H           -2.08190000000000        2.33370000000000       -0.73410000000000
H           -3.01140000000000        1.48460000000000        0.38160000000000
H            1.05900000000000       -1.40420000000000        1.57570000000000
H           -0.69100000000000       -1.25210000000000        1.49920000000000
H            1.52910000000000       -1.96870000000000       -2.38160000000000
H            2.79060000000000       -2.12490000000000       -1.07500000000000
H            0.97640000000000       -4.78460000000000       -2.06950000000000
H            0.34610000000000       -5.19870000000000       -0.47050000000000
26
 energy: -39.760929715440 gnorm: 0.084959023334 xtb: 6.6.0 (8843059)
C            0.43342628683571       -0.20191530549734       -0.01476879721660
C           -0.48873198895545        0.04227010003614       -1.17652253898684
C           -1.94601798964952        0.32541341479743       -0.83363791052528
C           -2.60458687881976       -0.83402415550312       -0.15265092455681
O           -2.64985725888532       -1.92798134749992       -0.68382702346937
O           -3.24997145741647       -0.62227742735277        1.03389910596532
N           -2.07971360423851        1.56147847862538       -0.05591597177221
C            0.22037989692358       -1.41012488834263        0.86019396786184
N            0.19841742722909       -2.70968923219828        0.25964411551285
C            0.88676256616567       -3.10969709032328       -0.71474275884719
N            1.82023508680812       -2.35269663148218       -1.45790874150110
N            0.74769806341135       -4.44953783810128       -1.10883601508206
H            1.47240383006582       -0.22685949557983       -0.38506730123283
H            0.37126099585981        0.68946895590128        0.64534203276528
H           -0.47827101074167       -0.76533168182310       -1.92766934321268
H           -0.09597134709246        0.94148420895933       -1.69783204527398
H           -2.48432715649273        0.44339705371449       -1.80532006445617
H           -3.51595731400717       -1.43077424982030        1.54422032707513
H           -2.07987912771171        2.35032188656057       -0.70250731080026
H           -2.99574115372477        1.52744631930173        0.39989023880561
H            1.05530911579915       -1.41345435602538        1.60093095401900
H           -0.69131886397405       -1.28989275674643        1.46515198526317
H            1.55443448039521       -2.00155063999385       -2.37020165364530
H            2.74226615343524       -2.14420623285731       -1.09455099597824
H            0.99578004434852       -4.75382930290116       -2.04035856966063
H            0.33337120443234       -5.13923778584817       -0.49085476105064
26
 energy: -39.772669223087 gnorm: 0.027002685128 xtb: 6.6.0 (8843059)
C            0.44859217708650       -0.17193912570269       -0.00199078515107
C           -0.49421820116907        0.04634918177562       -1.18500373537175
C           -1.97005297767774        0.32963940484877       -0.83121299300661
C           -2.61942688877974       -0.87065509647333       -0.16979825451072
O           -2.64347323783171       -1.95437917335259       -0.66669431886824
O           -3.19574129505073       -0.60001083158796        1.01899867813227
N           -2.08822711758542        1.55615325794798       -0.04757580844396
C            0.24258458969900       -1.41870209116705        0.87044565258094
N            0.19179906680498       -2.72272173977495        0.27228873690850
C            0.88219167764106       -3.11758349605381       -0.70926289240323
N            1.80663290249169       -2.37493400203072       -1.47247793955418
N            0.77635911996905       -4.42508261492075       -1.09511205486926
H            1.46512635690035       -0.20295140777287       -0.39548125863627
H            0.36385287502757        0.69431724198190        0.65088013984554
H           -0.47424518570752       -0.79766086883551       -1.88107644351638
H           -0.12263970988442        0.92749776297216       -1.71268121875249
H           -2.49727079688679        0.41597412338010       -1.80185648066749
H           -3.48486064406359       -1.41258068733680        1.46144808567068
H           -2.06354466276141        2.35591915855110       -0.67044611776777
H           -2.98323616653253        1.55466242501813        0.42480705981577
H            1.05240174042694       -1.41934747743132        1.61145374562786
H           -0.69322036341732       -1.31522704870662        1.43669102612609
H            1.57395231530646       -2.04337388972979       -2.38020574686986
H            2.69908018922805       -2.14096206007435       -1.10043127091153
H            1.02587301256608       -4.71996886370371       -2.01706782842121
H            0.27311122420028       -5.07423208182092       -0.51253797698562
26
 energy: -39.775547528417 gnorm: 0.033212244124 xtb: 6.6.0 (8843059)
C            0.45345427546467       -0.15589466030332       -0.00116327040366
C           -0.49591072890215        0.03777178654160       -1.19020694011692
C           -1.97171377596387        0.32490013772468       -0.83216488226558
C           -2.59339431387368       -0.89045302179135       -0.16116329672976
O           -2.66849557662746       -1.96891568762667       -0.67922753220818
O           -3.16297719233497       -0.60232901682636        1.01934797113526
N           -2.07530174024479        1.54131852588228       -0.03773280857010
C            0.24936918843024       -1.41041940607536        0.87229077287088
N            0.19537474992263       -2.71530804813166        0.27667378153051
C            0.88602273839821       -3.11228243369050       -0.70480446405833
N            1.80534178319898       -2.37943771295550       -1.48266053773630
N            0.79560414642509       -4.41900249836722       -1.08120988242821
H            1.46594870244432       -0.17468562588249       -0.40216796567450
H            0.35277766453613        0.70775539458735        0.65317970484865
H           -0.47629633145297       -0.83741765716044       -1.84737496641060
H           -0.13876312554981        0.90639775284720       -1.74688954702174
H           -2.50999570178035        0.40252572231485       -1.79690502929676
H           -3.51253509850807       -1.42403884443669        1.41446140474269
H           -2.03539208827032        2.35481111075603       -0.64305236153267
H           -2.95893514506385        1.56371127404039        0.45980664699391
H            1.05064555337135       -1.41251672933298        1.62142575125494
H           -0.69319141199298       -1.31264785140137        1.42329837172849
H            1.59339845729757       -2.09069469882624       -2.41602679221608
H            2.67737123421987       -2.09310350507146       -1.08313176336915
H            1.05707573839919       -4.70962643615821       -2.00269715209631
H            0.18191799845711       -5.03221787065656       -0.53580521297046
26
 energy: -39.777904554619 gnorm: 0.033658556462 xtb: 6.6.0 (8843059)
C            0.45442028228850       -0.14079437845704        0.00207568368106
C           -0.49711144043059        0.02095932070965       -1.19236514097359
C           -1.97024189528494        0.31787313170312       -0.83468148766382
C           -2.59678662192745       -0.89922358269588       -0.17139150576467
O           -2.68179750490456       -1.98093026615821       -0.69157387922274
O           -3.14321670599069       -0.61925896537364        1.01517894857356
N           -2.05509298102061        1.51907497668042       -0.02371918378641
C            0.25246048736672       -1.39760626407594        0.87722456859658
N            0.20086498058206       -2.70294575700089        0.28427695581436
C            0.88032324230044       -3.10149574021622       -0.70452388196180
N            1.79844292220164       -2.38224848642112       -1.49485084055821
N            0.79599473636931       -4.41343225039208       -1.06975575759970
H            1.46723552162112       -0.14045480106640       -0.39907676099030
H            0.33606340348540        0.72421881271650        0.65663230680804
H           -0.47835898757428       -0.88441571950429       -1.80786587151586
H           -0.14317105809339        0.86726753337198       -1.78916198736241
H           -2.51215354490012        0.40016588773554       -1.79645276381952
H           -3.51636006398186       -1.44250424164944        1.38062240852565
H           -1.98545632649049        2.34865981432732       -0.60782939642029
H           -2.93143933252420        1.56709611315035        0.48734632316452
H            1.04774664502636       -1.40023054387330        1.63504663574695
H           -0.69392474685797       -1.30172839628414        1.41609216619150
H            1.61797998017175       -2.16244853329943       -2.46415345183722
H            2.63418037905544       -2.01036087748384       -1.05515578293470
H            1.06308692758596       -4.69495801482341       -1.99513686453219
H            0.12771170192655       -4.99207877161959       -0.56070144015876
26
 energy: -39.780673176341 gnorm: 0.034410233992 xtb: 6.6.0 (8843059)
C            0.45377143413004       -0.12457975969113        0.00482582320453
C           -0.49694048241150       -0.00794816163164       -1.19436429360127
C           -1.96345437051025        0.30597457473912       -0.83637438907745
C           -2.60276201509218       -0.90802730469864       -0.18485160107617
O           -2.69328983009823       -1.98955450935560       -0.71211175120682
O           -3.13688801633022       -0.65106114149613        1.00746209977654
N           -2.02970575179631        1.48821576010471       -0.00617470184265
C            0.26181666595595       -1.37679974913101        0.88713556679611
N            0.22700596956066       -2.68550456177598        0.30438610512780
C            0.88222900289345       -3.08574970272174       -0.70003364232072
N            1.79739538381798       -2.38295075741410       -1.50251200946959
N            0.77876401841273       -4.40382476793952       -1.06056017966566
H            1.47101348195076       -0.09440042415608       -0.38775497647312
H            0.31067318776700        0.74550525286479        0.65372019661604
H           -0.48166225420669       -0.94197345050929       -1.76268754290488
H           -0.14097048116254        0.80605055888188       -1.84043319607331
H           -2.50840950045568        0.40489758333551       -1.79606488813389
H           -3.52633674077022       -1.46941536736188        1.35164625531676
H           -1.92200189904557        2.32999973731107       -0.56854662537056
H           -2.90204065845455        1.55605814055679        0.50522445415442
H            1.05266656480535       -1.37047499334676        1.65276194927977
H           -0.68760255507992       -1.28143713204426        1.41594338430594
H            1.65062794674401       -2.24302879728742       -2.49766754136940
H            2.58015873182662       -1.91221985580474       -1.03955077105076
H            1.04079020733352       -4.66763202337415       -1.99564313090511
H            0.05655196021595       -4.94191914805376       -0.60167459403649
26
 energy: -39.783650873033 gnorm: 0.022733653437 xtb: 6.6.0 (8843059)
C            0.45226518903866       -0.10971317288847        0.00421594527840
C           -0.49592727626008       -0.04297055959353       -1.19717485763071
C           -1.95426004308806        0.29016566989119       -0.83568548074501
C           -2.61335900744157       -0.91735070179549       -0.19996587165326
O           -2.70103761323174       -1.99477397591494       -0.73708825753982
O           -3.13882199761675       -0.69045716922644        1.00318643908701
N           -2.00624517242158        1.45707181300951        0.00998987736248
C            0.27954170826911       -1.35068620403377        0.90056894195464
N            0.26767785066031       -2.66489843298397        0.33225655699599
C            0.88896541817577       -3.06527928640516       -0.69411768562741
N            1.80578807561302       -2.37951412182084       -1.49696043530598
N            0.75213588556904       -4.38981445178110       -1.05522245563796
H            1.47595660555180       -0.04858628246004       -0.37449689552559
H            0.28180357343194        0.76757368776556        0.64030641017239
H           -0.48806246698112       -0.99732436886072       -1.72303371944691
H           -0.13572073064699        0.73668594156138       -1.88526695298885
H           -2.50182767891702        0.41221117407891       -1.79404526339326
H           -3.54470023993715       -1.50374828914848        1.33116710009515
H           -1.86266171387520        2.30160712884801       -0.53643748135320
H           -2.88006324633967        1.53506385266201        0.51024968961002
H            1.06729029162832       -1.32498333218179        1.67152969792777
H           -0.67302910522131       -1.25686620912236        1.42337356970026
H            1.68903652905850       -2.29680576370721       -2.49360050952218
H            2.53865099482586       -1.85406401247789       -1.05162727020916
H            1.00170094458915       -4.63397996123012       -2.00152207085225
H           -0.03369677443298       -4.88036297218420       -0.65449902075254
26
 energy: -39.785616618256 gnorm: 0.037203200507 xtb: 6.6.0 (8843059)
C            0.45622747093217       -0.09647401030505       -0.00285331077735
C           -0.49158575536484       -0.07974286614438       -1.20373834973790
C           -1.94275160606995        0.27349515203659       -0.82906059261362
C           -2.61175338854079       -0.93654495980747       -0.20965274482447
O           -2.71789373656799       -1.99619713223836       -0.77581396233379
O           -3.14107407745496       -0.72859871863316        0.99881001890281
N           -1.97888733076105        1.42940153282036        0.03254733358181
C            0.30491598457440       -1.32553912756119        0.91069670632272
N            0.30536682911296       -2.64598450467066        0.35510023920785
C            0.90075374000451       -3.05195587819414       -0.68367348551032
N            1.81620599346774       -2.38277379474188       -1.48706230993140
N            0.72247339913895       -4.37607958381191       -1.04975321969997
H            1.48307898304613       -0.01407329759228       -0.36871446237068
H            0.25763443946335        0.78502097922047        0.61367938257128
H           -0.49810236820781       -1.05270987379866       -1.68817718004713
H           -0.13220150403917        0.66644251305205       -1.92017386535214
H           -2.49485423520961        0.42181706778893       -1.78381952863533
H           -3.57566084115419       -1.53950422926346        1.30653857264464
H           -1.80077778747864        2.27257487200389       -0.49832969366318
H           -2.85922976195450        1.51432668251167        0.51562987419819
H            1.08729349396989       -1.27722443560316        1.68417869034400
H           -0.65264310031693       -1.23563471277753        1.42965054851398
H            1.74260739180222       -2.39577348236716       -2.49807723763534
H            2.46818858384306       -1.72097299015283       -1.03610002100161
H            0.94813940312215       -4.59901202208164       -2.00784317566384
H           -0.12407021935678       -4.81008317968899       -0.70788822648920
26
 energy: -39.786429064034 gnorm: 0.053492948387 xtb: 6.6.0 (8843059)
C            0.46105923338899       -0.08934034658794       -0.00895282374576
C           -0.48694314461093       -0.10010550656066       -1.20562032547114
C           -1.93709742804456        0.26011105622478       -0.82313563194369
C           -2.61007643719405       -0.95655105958509       -0.21855615599335
O           -2.72436613213813       -1.99913939840846       -0.80889997492916
O           -3.15886056553524       -0.75319940372217        0.98681112578998
N           -1.96832352122703        1.41529685149446        0.04726027937816
C            0.32637276032872       -1.30593802071487        0.92171463543330
N            0.31715263167946       -2.62854157787093        0.36891800013419
C            0.89331269934029       -3.03625490893239       -0.67854471275402
N            1.82354263407902       -2.37956692277199       -1.46398259097754
N            0.67958483552577       -4.35392445516162       -1.05833401222247
H            1.48720187306511       -0.00458723861413       -0.36995957662066
H            0.24725933145353        0.79485799966034        0.58843845941116
H           -0.50605164836329       -1.08068191336259       -1.67198951411283
H           -0.13342383101272        0.62878000553208       -1.92867591637174
H           -2.48875604258042        0.42608283659378       -1.77610204853962
H           -3.58938564044110       -1.56015992124411        1.30052399222480
H           -1.76923825216811        2.25505170098005       -0.47622034621491
H           -2.86291991669615        1.50044137802963        0.50876323646192
H            1.11087644332563       -1.24416410082678        1.68661663827922
H           -0.63009451019775       -1.21963388619729        1.44909244964615
H            1.79171523537498       -2.44010967473069       -2.47379261821170
H            2.43624960242984       -1.70546026981489       -1.05078482137803
H            0.90338013298142       -4.56871558060909       -2.01694959922621
H           -0.14077034276289       -4.75634764279936       -0.73153814804605
26
 energy: -39.785984403473 gnorm: 0.063949017207 xtb: 6.6.0 (8843059)
C            0.46744629871554       -0.07974377834553       -0.01576211324300
C           -0.48660103721229       -0.11349884912382       -1.20706634101664
C           -1.94014117032972        0.24589010711430       -0.81826883333510
C           -2.62160399960199       -0.97809871438602       -0.23052585019455
O           -2.71873829655650       -2.01196407782090       -0.82323331440069
O           -3.17543185359989       -0.77368425931457        0.97437351269143
N           -1.96814964452439        1.40040250351409        0.06126305878537
C            0.34905590122750       -1.29104090782537        0.92729687887631
N            0.32750251454133       -2.61519935418404        0.37411974193875
C            0.90777247992244       -3.02832337437522       -0.66628500944565
N            1.85063861435326       -2.38294460359317       -1.43985606500276
N            0.67530501906472       -4.33770233810839       -1.05704117545984
H            1.48929938013707        0.00716254841987       -0.38059935777217
H            0.23889233518291        0.80530313811176        0.56686797869760
H           -0.51491906572854       -1.10579310421107       -1.65595873083531
H           -0.14375125921102        0.60012018970365       -1.94549444366608
H           -2.48778005827720        0.42022706240711       -1.76961806635315
H           -3.57426286458578       -1.57614601258668        1.30346158883502
H           -1.74749524043096        2.24243263262246       -0.45266209734994
H           -2.87673078549479        1.49103421222371        0.50262594146803
H            1.13677699674363       -1.21864824959896        1.68229212915557
H           -0.60510176319590       -1.21012244593142        1.46416442694276
H            1.85152589905634       -2.47338537804577       -2.43576591663958
H            2.42171929944764       -1.69173623700367       -1.06610975472837
H            0.89398627400883       -4.54824108800196       -2.01562156970860
H           -0.27781397365181       -4.67809962166031       -0.78049661823942
26
 energy: -39.788505119341 gnorm: 0.039717422013 xtb: 6.6.0 (8843059)
C            0.47203902126571       -0.07592999135813       -0.01345608204551
C           -0.48499296394617       -0.11425834087459       -1.20414272143524
C           -1.93771869027931        0.24644414607413       -0.81907337952751
C           -2.62256769111970       -0.97632446047329       -0.23472772774475
O           -2.71946072598443       -2.01492035050572       -0.82559755507377
O           -3.16629357834816       -0.77609277389143        0.97271527347873
N           -1.96661294991156        1.39379033316233        0.06706881460412
C            0.35409965824093       -1.28875436992684        0.92866493240159
N            0.32239051853195       -2.61225967975313        0.37432430714805
C            0.90221143273980       -3.03391614309347       -0.66615419639508
N            1.85366697740974       -2.40608871167159       -1.45018796986207
N            0.65014518684386       -4.33857330839887       -1.06163261124265
H            1.49381582759974        0.01949002247754       -0.38356302150051
H            0.24097511833935        0.81183553578754        0.57218658379218
H           -0.51037866527990       -1.11198818256762       -1.64634946250861
H           -0.14368580901808        0.59419304860482       -1.96351477977493
H           -2.48531468059644        0.42003233526307       -1.76952567176651
H           -3.58837092506829       -1.59077766018650        1.28237428987946
H           -1.73766287101838        2.24191139059561       -0.44085014510073
H           -2.87535743468282        1.49118025674659        0.50457345854515
H            1.14898734878347       -1.22281479394773        1.67939950042421
H           -0.59414589382457       -1.20252318804697        1.47008369557569
H            1.85737336395243       -2.49664508412122       -2.43733637270946
H            2.39136262802022       -1.62872074408601       -1.04780500779269
H            0.88076008707947       -4.54875479153499       -2.01938693939171
H           -0.26386428972840       -4.68133449427344       -0.77198721197741
26
 energy: -39.786573044250 gnorm: 0.062354243287 xtb: 6.6.0 (8843059)
C            0.47273130232850       -0.06840217014737       -0.01107237042082
C           -0.48594401199214       -0.10933820986476       -1.20074091915704
C           -1.93748824237063        0.24633940654687       -0.81826867383953
C           -2.61589191521707       -0.97769322031313       -0.23219244053270
O           -2.71755105501220       -2.02032188987414       -0.82693046284168
O           -3.16008457055909       -0.78413744590890        0.97276052651917
N           -1.97285874787232        1.38617651764378        0.07374420356295
C            0.34989212429067       -1.27816050115075        0.93219414057025
N            0.29738987107094       -2.59704515842961        0.37126505621057
C            0.88471576781730       -3.01868199450637       -0.66508897694124
N            1.85453504530078       -2.39593475903973       -1.43493951093475
N            0.62383096191232       -4.31958467826267       -1.06870487367041
H            1.49482627363601        0.03037974719619       -0.38659254100649
H            0.24862085211618        0.82291901703772        0.57776764277329
H           -0.50200205358674       -1.10259106726938       -1.64643340941331
H           -0.14655223945196        0.60069373903435       -1.96487784915859
H           -2.48770160351310        0.41924103316423       -1.76711290446313
H           -3.59363670005441       -1.60964939331628        1.27147149933048
H           -1.75159974005805        2.23460352684426       -0.43229571175535
H           -2.87932735735889        1.48171749563029        0.50939728296241
H            1.16043691066125       -1.22680965585976        1.67144125561414
H           -0.58770554336570       -1.18021742779993        1.48458071316006
H            1.91756916179951       -2.58554056665919       -2.48513424298442
H            2.39114277387855       -1.64811393276294       -1.03545000717583
H            0.86717668477131       -4.53055512057124       -2.02512937112564
H           -0.25312394917056       -4.67109329136149       -0.76755805528234
26
 energy: -39.789807567578 gnorm: 0.018138844991 xtb: 6.6.0 (8843059)
C            0.47535929662215       -0.06926517938304       -0.01522550742905
C           -0.48512622402958       -0.10428012805733       -1.20213383591357
C           -1.93935722049627        0.24435529042797       -0.82013608472246
C           -2.61361323532309       -0.98288598114077       -0.23355187228728
O           -2.70957721115120       -2.02518376690315       -0.82638404964978
O           -3.16956936975784       -0.78360650793693        0.96453071866349
N           -1.97994686942528        1.38712304604356        0.07013903836019
C            0.35657868636171       -1.28057694403609        0.92736767707163
N            0.29331338562084       -2.59963619125239        0.36397163333238
C            0.88667674130694       -3.02803320104747       -0.66635169879081
N            1.86670489714367       -2.41379806924221       -1.43226923380491
N            0.61633203125056       -4.32347689169649       -1.07107617435465
H            1.49526743044796        0.02629433643242       -0.39343387613671
H            0.25603389346683        0.82031371753724        0.57436244243807
H           -0.49751447732014       -1.09101724117696       -1.65733132170675
H           -0.14868520127380        0.61241593405269       -1.95149181603147
H           -2.48750112532735        0.41559433343735       -1.76950806050805
H           -3.57893989850506       -1.60594422772808        1.27957964118019
H           -1.76555461513527        2.23283748551323       -0.43862863875263
H           -2.88960824367282        1.47974335955483        0.50198108777099
H            1.17333007329972       -1.23051409000901        1.65945059343162
H           -0.57688627750770       -1.17950554865294        1.48899159271422
H            1.90046718323306       -2.52448831553688       -2.43042521977941
H            2.40052998726265       -1.66707257446282       -1.03969926869343
H            0.85628148853079       -4.54136011151006       -2.02470006209166
H           -0.26359512562106       -4.66983253322661       -0.76192770431013
26
 energy: -39.790110608217 gnorm: 0.036018629696 xtb: 6.6.0 (8843059)
C            0.47991022302987       -0.05612578306175       -0.02146367327740
C           -0.48323884606789       -0.11502665223985       -1.20515663368976
C           -1.93863034918476        0.23214768116474       -0.81845091800154
C           -2.61672103250130       -1.00256187479467       -0.24690512535838
O           -2.69703046455560       -2.03856355442141       -0.84475736250946
O           -3.17952626237916       -0.81156469267426        0.95092682896495
N           -1.97800186274311        1.36759204268803        0.08437319350741
C            0.37760432645702       -1.26417297590331        0.92954358059227
N            0.29712344064686       -2.58368547203823        0.36554795423712
C            0.88748349634351       -3.02201959464788       -0.66235746044132
N            1.88638657339700       -2.42910325344586       -1.41239972009169
N            0.59165232005507       -4.31285037814022       -1.07119109407059
H            1.49805592914868        0.04638846408108       -0.39947762333368
H            0.24919124092555        0.83368972497592        0.55903896577204
H           -0.50004770627386       -1.11760426450128       -1.63711592922631
H           -0.15351249677329        0.58723967084330       -1.96862827369160
H           -2.48466930548125        0.41635868013767       -1.76728077703729
H           -3.56583224755530       -1.63040328117585        1.27383449491452
H           -1.73316039589378        2.22073074929383       -0.40961354174087
H           -2.89935453267861        1.46714807100971        0.49684891084029
H            1.20296334273180       -1.21138399138090        1.64921267363795
H           -0.54940959199354       -1.16144302443312        1.50477891401648
H            1.95483108339092       -2.57918455057041       -2.39890015055193
H            2.35574231566549       -1.60301763344343       -1.03053959384383
H            0.81766101067181       -4.52599092464832       -2.02860450863322
H           -0.34807020838164       -4.60839318267350       -0.79516313098417
26
 energy: -39.791240021031 gnorm: 0.014328054633 xtb: 6.6.0 (8843059)
C            0.48246325098674       -0.05186839383748       -0.02369418445858
C           -0.48333454582219       -0.10256271662946       -1.20506413382412
C           -1.94054730130198        0.23277780270954       -0.81949663417986
C           -2.60955047316241       -1.00513521038649       -0.24525738945060
O           -2.68283327132254       -2.04543019391389       -0.84003077298143
O           -3.17135199531989       -0.81565581125321        0.95183474281653