 Entering Gaussian System
 *********************************************
 Gaussian 98:
 frequency output generated by the xtb code
 *********************************************
                         Standard orientation:
 --------------------------------------------------------------------
  Center     Atomic     Atomic              Coordinates (Angstroms)
  Number     Number      Type              X           Y           Z
 --------------------------------------------------------------------
    1          6             0       -0.845460    2.289524   -0.152239
    2          6             0       -1.810780    1.273400    0.466407
    3          6             0       -1.773353   -0.044235   -0.305682
    4          6             0       -0.373644   -0.689203   -0.103050
    5          8             0       -0.136618   -1.568885   -1.154001
    6          8             0       -0.376504   -1.342904    1.118589
    7          7             0       -2.848180   -0.909882    0.124842
    8          6             0        0.325073    1.559494   -0.822564
    9          7             0        0.655020    0.363569   -0.075034
   10          6             0        1.936480   -0.035817    0.184054
   11          7             0        2.899689    0.952065    0.244351
   12          7             0        2.174358   -1.285690    0.355323
   13          1             0       -1.355601    2.891461   -0.904748
   14          1             0       -0.478058    2.962901    0.623632
   15          1             0       -2.831393    1.652217    0.467554
   16          1             0       -1.525312    1.057466    1.497207
   17          1             0       -1.906985    0.133481   -1.377022
   18          1             0        0.517790   -1.721444    1.220360
   19          1             0       -2.810516   -1.773832   -0.406667
   20          1             0       -2.699182   -1.155982    1.099313
   21          1             0        0.042919    1.261955   -1.840668
   22          1             0        1.197997    2.205697   -0.904689
   23          1             0        3.778962    0.661320    0.643011
   24          1             0        2.607515    1.873295    0.525961
   25          1             0        3.133222   -1.492800    0.610523
   26          1             0        0.727393   -1.981613   -0.981498
 --------------------------------------------------------------------
     1 basis functions        1 primitive gaussians
     1 alpha electrons        1 beta electrons
 
 Harmonic frequencies (cm**-1), IR intensities (km*mol⁻¹),
 Raman scattering activities (A**4/amu), Raman depolarization ratios,
 reduced masses (AMU), force constants (mDyne/A) and normal coordinates:
                      1                      2                      3
                        a                      a                      a 
 Frequencies --    53.4986                97.2956               106.4420
 Red. masses --    11.7052                12.9477                11.0551
 Frc consts  --     0.0000                 0.0000                 0.0000
 IR Inten    --     0.3219                 5.2581                 3.6007
 Raman Activ --     0.0000                 0.0000                 0.0000
 Depolar     --     0.0000                 0.0000                 0.0000
 Atom AN      X      Y      Z        X      Y      Z        X      Y      Z
   1   6    -0.02   0.01   0.31     0.01   0.01  -0.04    -0.21   0.02  -0.26
   2   6    -0.13  -0.08   0.01    -0.02   0.02  -0.07    -0.17   0.05  -0.16
   3   6     0.03   0.01  -0.12     0.02  -0.00  -0.02    -0.02  -0.04   0.02
   4   6     0.01   0.04   0.07     0.00  -0.00   0.05     0.02   0.07   0.13
   5   8     0.06  -0.17   0.28    -0.05  -0.21   0.24     0.22   0.29   0.03
   6   8    -0.08   0.29   0.22     0.03   0.22   0.20    -0.07  -0.11   0.05
   7   7    -0.00  -0.10  -0.42    -0.00   0.01  -0.05     0.03  -0.08   0.06
   8   6    -0.04   0.12   0.16     0.03   0.02  -0.02     0.06   0.04   0.19
   9   7     0.03   0.03  -0.04     0.00  -0.02  -0.06    -0.03   0.15   0.44
  10   6     0.03  -0.02  -0.11     0.01  -0.03  -0.12     0.02  -0.05  -0.00
  11   7     0.14  -0.11  -0.37    -0.13   0.07   0.45     0.17  -0.20  -0.15
  12   7    -0.05  -0.02   0.01     0.10  -0.08  -0.65    -0.06  -0.10  -0.25
  13   1     0.02   0.07   0.13     0.01   0.01  -0.01    -0.05  -0.09  -0.16
  14   1     0.00  -0.07   0.15    -0.00   0.00  -0.01    -0.15   0.09  -0.11
  15   1    -0.04  -0.03  -0.04    -0.00   0.01  -0.04    -0.06  -0.00  -0.08
  16   1    -0.10  -0.06   0.01    -0.02   0.01  -0.01    -0.06   0.07  -0.03
  17   1     0.06   0.03  -0.04     0.02  -0.01  -0.01     0.01  -0.05  -0.00
  18   1    -0.03   0.06   0.08    -0.02  -0.01   0.03    -0.03  -0.04   0.01
  19   1     0.04  -0.01  -0.13     0.01  -0.00  -0.00     0.04  -0.04   0.05
  20   1    -0.05  -0.05  -0.11    -0.02   0.02  -0.01    -0.01   0.02   0.03
  21   1    -0.02   0.08   0.03     0.02   0.02  -0.01     0.12  -0.03   0.04
  22   1    -0.02   0.05   0.06     0.02  -0.00   0.01     0.00   0.04   0.12
  23   1     0.04  -0.04  -0.12    -0.03   0.01   0.11     0.06  -0.09  -0.11
  24   1     0.08  -0.01  -0.11    -0.08  -0.03   0.22     0.10  -0.05  -0.00
  25   1    -0.01  -0.02  -0.03     0.02  -0.03  -0.17    -0.00  -0.07  -0.15
  26   1     0.02  -0.03   0.10     0.02   0.00   0.05     0.06   0.08   0.02
                      4                      5                      6
                        a                      a                      a 
 Frequencies --   164.1176               186.4479               249.8059
 Red. masses --     6.8575                11.5788                12.5266
 Frc consts  --     0.0000                 0.0000                 0.0000
 IR Inten    --     0.6926                 3.2209                 4.2818
 Raman Activ --     0.0000                 0.0000                 0.0000
 Depolar     --     0.0000                 0.0000                 0.0000
 Atom AN      X      Y      Z        X      Y      Z        X      Y      Z
   1   6    -0.21  -0.05  -0.25    -0.17   0.02  -0.03     0.03   0.03   0.11
   2   6     0.32  -0.13   0.40    -0.06  -0.06  -0.00     0.18  -0.14   0.02
   3   6     0.03   0.06   0.07    -0.03  -0.04  -0.02    -0.00  -0.08  -0.14
   4   6    -0.01  -0.00   0.01     0.03   0.11  -0.14     0.01  -0.07  -0.16
   5   8    -0.01  -0.05   0.07    -0.07   0.01  -0.07     0.63  -0.15   0.04
   6   8    -0.02   0.06   0.05     0.13   0.33  -0.05    -0.29   0.07  -0.09
   7   7    -0.08   0.05  -0.29     0.24  -0.26   0.23    -0.07   0.20   0.26
   8   6     0.01   0.04  -0.01     0.02   0.24  -0.00    -0.04   0.07  -0.02
   9   7    -0.02   0.03  -0.00     0.06   0.09  -0.31    -0.09   0.06  -0.03
  10   6    -0.02   0.01  -0.00    -0.04  -0.04  -0.01    -0.11   0.02  -0.04
  11   7     0.01  -0.02  -0.00     0.16  -0.29   0.22    -0.09  -0.02  -0.03
  12   7    -0.05   0.01   0.01    -0.29  -0.09   0.10    -0.18   0.00  -0.06
  13   1    -0.17  -0.21  -0.15    -0.07  -0.03  -0.02    -0.01   0.03   0.07
  14   1    -0.12   0.16  -0.20    -0.09   0.04  -0.01     0.02  -0.02   0.05
  15   1     0.09  -0.06   0.34    -0.02  -0.03   0.02     0.05  -0.05   0.09
  16   1     0.32  -0.07   0.05     0.01  -0.02  -0.01     0.11  -0.10  -0.02
  17   1     0.03   0.12   0.03    -0.06  -0.02   0.00    -0.06  -0.03  -0.03
  18   1    -0.01   0.01   0.02     0.03   0.08  -0.03    -0.09  -0.01   0.04
  19   1    -0.04   0.06  -0.16     0.10  -0.08   0.08    -0.10   0.01   0.13
  20   1    -0.04  -0.09  -0.10     0.13  -0.04   0.06     0.02   0.12   0.08
  21   1     0.08   0.01  -0.03     0.05   0.14  -0.03    -0.03   0.03  -0.00
  22   1    -0.01   0.03   0.05    -0.01   0.10   0.08    -0.00   0.01  -0.02
  23   1    -0.00  -0.01   0.00    -0.02  -0.12   0.16    -0.02  -0.02  -0.02
  24   1     0.01  -0.00  -0.00     0.09  -0.03  -0.05    -0.01  -0.00  -0.01
  25   1    -0.01  -0.00   0.00    -0.10  -0.06   0.08    -0.05  -0.02  -0.02
  26   1     0.00  -0.01   0.02    -0.03  -0.01  -0.01     0.19   0.07   0.11
                      7                      8                      9
                        a                      a                      a 
 Frequencies --   268.6972               297.5811               308.1491
 Red. masses --     9.0725                10.7210                 1.9846
 Frc consts  --     0.0000                 0.0000                 0.0000
 IR Inten    --     6.6757                 8.8175                40.8588
 Raman Activ --     0.0000                 0.0000                 0.0000
 Depolar     --     0.0000                 0.0000                 0.0000
 Atom AN      X      Y      Z        X      Y      Z        X      Y      Z
   1   6    -0.15   0.05  -0.03    -0.13   0.00   0.02    -0.04  -0.03   0.03
   2   6    -0.05  -0.04  -0.12    -0.13  -0.02  -0.04     0.03  -0.06   0.07
   3   6    -0.00  -0.05  -0.08     0.02  -0.08   0.06     0.03   0.01   0.00
   4   6    -0.01  -0.12  -0.09     0.07  -0.08   0.09     0.02   0.00   0.02
   5   8    -0.15  -0.31  -0.00     0.16  -0.00   0.03    -0.03   0.04  -0.02
   6   8     0.07  -0.10  -0.08     0.48  -0.13   0.05     0.03  -0.03   0.00
   7   7    -0.16   0.24   0.13    -0.34   0.33  -0.06    -0.05   0.02  -0.20
   8   6     0.20   0.24   0.35    -0.17   0.02  -0.08    -0.07  -0.02  -0.05
   9   7     0.04  -0.13  -0.14     0.00   0.07  -0.09     0.02   0.02  -0.02
  10   6     0.05   0.01  -0.01    -0.00   0.05  -0.03     0.02   0.02  -0.01
  11   7     0.01   0.11  -0.10     0.18  -0.19   0.14     0.06  -0.03   0.04
  12   7     0.19   0.05   0.09    -0.09   0.02  -0.02    -0.01   0.01  -0.01
  13   1    -0.03  -0.07  -0.08    -0.04   0.02   0.02    -0.03  -0.01   0.02
  14   1    -0.17   0.09  -0.02    -0.02  -0.02   0.02     0.00  -0.01   0.00
  15   1    -0.03  -0.04  -0.04    -0.05  -0.04  -0.07     0.01  -0.02   0.06
  16   1    -0.02  -0.01  -0.03    -0.08   0.02   0.01     0.05  -0.03   0.01
  17   1     0.01  -0.04  -0.03     0.05  -0.03   0.01     0.03  -0.01  -0.01
  18   1     0.03  -0.01  -0.02     0.15   0.00  -0.06     0.00  -0.01  -0.01
  19   1    -0.09   0.01   0.12    -0.26   0.12  -0.08     0.43  -0.26   0.40
  20   1    -0.07   0.15   0.06    -0.11  -0.00  -0.04    -0.43   0.53   0.14
  21   1     0.20   0.21   0.02    -0.08  -0.01  -0.01    -0.04  -0.02  -0.00
  22   1     0.06   0.09   0.30    -0.07   0.02  -0.06    -0.03   0.00  -0.04
  23   1     0.03  -0.01  -0.12    -0.03  -0.05   0.21    -0.01   0.00   0.08
  24   1     0.01  -0.02   0.16     0.08   0.04  -0.22     0.02   0.02  -0.08
  25   1     0.06   0.05   0.02    -0.03  -0.01   0.01    -0.00  -0.00   0.00
  26   1    -0.04  -0.09  -0.01     0.05   0.02   0.00    -0.01   0.01  -0.02
                     10                     11                     12
                        a                      a                      a 
 Frequencies --   331.6384               361.4902               405.6542
 Red. masses --    11.8129                10.1508                 9.8569
 Frc consts  --     0.0000                 0.0000                 0.0000
 IR Inten    --    10.1864                 6.6842                20.4516
 Raman Activ --     0.0000                 0.0000                 0.0000
 Depolar     --     0.0000                 0.0000                 0.0000
 Atom AN      X      Y      Z        X      Y      Z        X      Y      Z
   1   6     0.07   0.23  -0.02     0.09  -0.19   0.01    -0.15   0.05   0.00
   2   6     0.12   0.14  -0.05     0.01  -0.15  -0.01    -0.13   0.13   0.07
   3   6     0.20   0.04   0.05    -0.14  -0.13   0.01     0.08   0.15   0.02
   4   6     0.06  -0.09   0.09    -0.02   0.07   0.01     0.04   0.04  -0.04
   5   8     0.04  -0.13   0.09     0.11   0.32  -0.14     0.20   0.07  -0.06
   6   8     0.34  -0.27   0.03     0.30   0.35   0.13     0.09   0.15   0.02
   7   7     0.22  -0.03  -0.12    -0.27  -0.03  -0.02     0.15   0.12  -0.01
   8   6     0.00   0.13   0.01     0.14  -0.04  -0.05    -0.07  -0.03   0.14
   9   7    -0.18   0.06   0.01     0.03  -0.01  -0.03     0.04  -0.16  -0.05
  10   6    -0.25  -0.00   0.01    -0.05  -0.13   0.03    -0.01  -0.32  -0.06
  11   7    -0.31   0.02  -0.10    -0.21   0.03  -0.05    -0.40  -0.05  -0.09
  12   7    -0.41  -0.03   0.01    -0.02  -0.13   0.09     0.24  -0.30   0.09
  13   1     0.02   0.07   0.00     0.02  -0.03   0.02    -0.03  -0.05  -0.06
  14   1     0.02   0.06   0.00     0.03  -0.08   0.02    -0.08   0.08  -0.04
  15   1     0.02   0.01  -0.05     0.02   0.00   0.01    -0.05   0.01  -0.02
  16   1     0.02   0.07  -0.00     0.01  -0.06  -0.01    -0.06   0.06   0.03
  17   1     0.10   0.00   0.01    -0.03  -0.04  -0.00     0.02   0.07   0.01
  18   1     0.11  -0.05  -0.07     0.09   0.10  -0.01     0.01   0.02   0.00
  19   1     0.15  -0.02  -0.01    -0.09  -0.03   0.02     0.06   0.03  -0.00
  20   1     0.02   0.01  -0.02    -0.13   0.03   0.01     0.05   0.03  -0.00
  21   1     0.01   0.06  -0.00     0.06  -0.01  -0.02    -0.02   0.00   0.04
  22   1     0.04  -0.01   0.02     0.04  -0.01   0.01    -0.05   0.02   0.03
  23   1    -0.02  -0.03  -0.18     0.06  -0.04  -0.30    -0.13   0.19   0.18
  24   1    -0.07  -0.05   0.17    -0.07  -0.11   0.36    -0.28   0.01  -0.27
  25   1    -0.12  -0.04   0.01    -0.01  -0.03   0.05     0.08  -0.00   0.01
  26   1     0.00  -0.04   0.03     0.04   0.10  -0.06     0.05   0.03   0.01
                     13                     14                     15
                        a                      a                      a 
 Frequencies --   416.9352               444.6433               483.5075
 Red. masses --     7.1653                 9.8414                 9.9239
 Frc consts  --     0.0000                 0.0000                 0.0000
 IR Inten    --     4.3545                17.9448                27.0284
 Raman Activ --     0.0000                 0.0000                 0.0000
 Depolar     --     0.0000                 0.0000                 0.0000
 Atom AN      X      Y      Z        X      Y      Z        X      Y      Z
   1   6     0.23  -0.03  -0.01     0.15   0.04  -0.06    -0.06  -0.19   0.01
   2   6     0.23  -0.15  -0.15    -0.06   0.21   0.09    -0.03  -0.16  -0.02
   3   6    -0.07  -0.17  -0.10    -0.21   0.00   0.31     0.26  -0.08   0.03
   4   6    -0.07  -0.03   0.03    -0.10   0.01   0.07     0.14  -0.04   0.17
   5   8    -0.16   0.07  -0.03     0.23   0.03   0.14    -0.11   0.21  -0.04
   6   8     0.10   0.07   0.09    -0.11  -0.20  -0.03    -0.21  -0.08   0.22
   7   7    -0.11  -0.12   0.02    -0.24  -0.30  -0.05     0.12   0.20   0.02
   8   6     0.29   0.09   0.12     0.22   0.14  -0.06     0.05  -0.02  -0.01
   9   7    -0.12   0.07   0.22     0.04  -0.05  -0.32     0.18  -0.06  -0.18
  10   6    -0.10   0.04   0.02    -0.01  -0.00  -0.13     0.13   0.02  -0.14
  11   7    -0.13   0.04  -0.10     0.01   0.02  -0.03     0.05   0.23  -0.10
  12   7    -0.10   0.05  -0.09     0.04   0.03   0.02    -0.34  -0.03  -0.01
  13   1     0.08   0.02   0.01     0.05   0.01  -0.02    -0.03  -0.07  -0.00
  14   1     0.03  -0.04   0.04     0.04   0.02  -0.02    -0.03  -0.04  -0.00
  15   1     0.08   0.00   0.03     0.01   0.12  -0.04    -0.02  -0.09  -0.09
  16   1     0.11  -0.09  -0.06    -0.06   0.14   0.06    -0.08  -0.02   0.02
  17   1    -0.01  -0.08  -0.04    -0.06   0.03   0.09     0.13  -0.04  -0.00
  18   1     0.05   0.07   0.01    -0.07  -0.15  -0.06    -0.13  -0.19   0.05
  19   1    -0.05  -0.04   0.01     0.07  -0.05  -0.05    -0.07   0.05  -0.00
  20   1    -0.01  -0.02   0.01    -0.16  -0.11  -0.01     0.02   0.04   0.00
  21   1     0.15   0.06   0.00     0.12   0.13  -0.06     0.05   0.04  -0.03
  22   1     0.09   0.03   0.10     0.07   0.04   0.09    -0.01   0.03   0.05
  23   1    -0.16   0.14   0.33    -0.06   0.00   0.14    -0.06   0.12   0.18
  24   1    -0.10   0.11  -0.43    -0.03  -0.00  -0.02    -0.14  -0.02   0.10
  25   1    -0.01   0.00  -0.10     0.00   0.03   0.06    -0.14  -0.13   0.07
  26   1    -0.05  -0.02  -0.03     0.16   0.20   0.02     0.05   0.15  -0.18
                     16                     17                     18
                        a                      a                      a 
 Frequencies --   511.9941               534.6755               549.8603
 Red. masses --     5.2690                 9.8262                 9.6323
 Frc consts  --     0.0000                 0.0000                 0.0000
 IR Inten    --    74.2893                38.6528                14.0507
 Raman Activ --     0.0000                 0.0000                 0.0000
 Depolar     --     0.0000                 0.0000                 0.0000
 Atom AN      X      Y      Z        X      Y      Z        X      Y      Z
   1   6     0.03  -0.16  -0.00     0.04  -0.23  -0.00    -0.04  -0.07   0.02
   2   6    -0.12   0.03   0.11    -0.17   0.07   0.16    -0.01  -0.13  -0.06
   3   6    -0.06   0.05   0.10    -0.07   0.14   0.06    -0.13   0.04  -0.21
   4   6     0.04   0.07  -0.06     0.02   0.02  -0.19    -0.02   0.29   0.05
   5   8     0.14  -0.01   0.01     0.00  -0.32  -0.01    -0.12   0.05   0.44
   6   8     0.00  -0.06  -0.20     0.16   0.21  -0.18     0.11  -0.15  -0.23
   7   7    -0.07  -0.00   0.00     0.01   0.04  -0.01    -0.01   0.02   0.03
   8   6     0.10  -0.06  -0.01     0.12  -0.20   0.09     0.02   0.13  -0.14
   9   7     0.12   0.06   0.09     0.06  -0.05   0.13     0.15   0.22   0.05
  10   6     0.14  -0.01  -0.19     0.03   0.11   0.33     0.10  -0.13   0.01
  11   7     0.04   0.18  -0.03     0.03   0.15  -0.05    -0.06   0.02  -0.02
  12   7    -0.24  -0.04  -0.00    -0.26   0.01  -0.12     0.06  -0.16   0.06
  13   1     0.01  -0.06  -0.01     0.03  -0.11  -0.04    -0.03   0.02   0.05
  14   1     0.01  -0.02  -0.02     0.02  -0.02  -0.04    -0.00  -0.06   0.04
  15   1    -0.02   0.04  -0.03    -0.03   0.06  -0.05     0.01  -0.01   0.11
  16   1    -0.09   0.04   0.05    -0.12   0.05   0.07     0.08  -0.14  -0.06
  17   1    -0.03   0.05   0.03    -0.06   0.10   0.03    -0.04  -0.02  -0.06
  18   1     0.12   0.29   0.10    -0.03  -0.14  -0.18    -0.07  -0.34  -0.30
  19   1     0.00   0.00  -0.00     0.04   0.01   0.00    -0.04  -0.01   0.03
  20   1    -0.06  -0.00   0.01    -0.00   0.02   0.00     0.08   0.03   0.00
  21   1     0.06  -0.04  -0.00     0.07  -0.08   0.02    -0.02  -0.02  -0.02
  22   1     0.01   0.02   0.01     0.01  -0.02   0.03    -0.03   0.09  -0.09
  23   1    -0.04   0.09   0.14     0.06   0.11  -0.09     0.02   0.10  -0.01
  24   1    -0.13  -0.03   0.12     0.04   0.09  -0.16    -0.12  -0.04   0.03
  25   1    -0.08  -0.12  -0.04    -0.10  -0.13  -0.04     0.01  -0.04   0.05
  26   1    -0.26  -0.47   0.37     0.16   0.20  -0.12    -0.02   0.03   0.13
                     19                     20                     21
                        a                      a                      a 
 Frequencies --   551.9280               586.9322               624.0983
 Red. masses --     5.3864                 9.0289                 6.9924
 Frc consts  --     0.0000                 0.0000                 0.0000
 IR Inten    --   115.4017                 6.6875               182.9303
 Raman Activ --     0.0000                 0.0000                 0.0000
 Depolar     --     0.0000                 0.0000                 0.0000
 Atom AN      X      Y      Z        X      Y      Z        X      Y      Z
   1   6    -0.01   0.13   0.01     0.04  -0.40  -0.00     0.00  -0.01   0.02
   2   6     0.03   0.07  -0.02    -0.14  -0.10   0.13    -0.02   0.05  -0.05
   3   6    -0.09   0.03  -0.07     0.06   0.16  -0.07    -0.20   0.16  -0.27
   4   6    -0.05  -0.04  -0.09    -0.10   0.06   0.03    -0.20   0.01   0.06
   5   8    -0.00  -0.14  -0.04     0.03   0.09   0.11    -0.00   0.07   0.19
   6   8     0.14   0.14  -0.01     0.04  -0.06  -0.01     0.09  -0.23   0.02
   7   7    -0.02  -0.05  -0.01     0.23   0.20  -0.00     0.06   0.01   0.01
   8   6    -0.10  -0.09   0.09     0.14  -0.09  -0.14    -0.02  -0.16   0.15
   9   7    -0.08  -0.02   0.20    -0.24   0.01  -0.02     0.03  -0.19  -0.07
  10   6    -0.01  -0.02  -0.12    -0.28   0.08  -0.10     0.13   0.03  -0.24
  11   7     0.24   0.05  -0.26    -0.06  -0.18  -0.04     0.05   0.09   0.11
  12   7     0.01   0.03   0.12     0.14   0.21   0.01    -0.12   0.01   0.01
  13   1     0.02   0.03  -0.02    -0.02  -0.09   0.04     0.04  -0.03  -0.04
  14   1    -0.01   0.05  -0.00     0.07  -0.14  -0.01    -0.02   0.02  -0.00
  15   1     0.01   0.02   0.05    -0.03   0.00  -0.05     0.01   0.06   0.14
  16   1     0.06  -0.01  -0.02    -0.13  -0.04   0.06     0.10  -0.10  -0.06
  17   1    -0.05   0.01  -0.02     0.04   0.10  -0.01    -0.06   0.02  -0.08
  18   1    -0.01  -0.09  -0.09     0.03   0.01  -0.04     0.22   0.42   0.11
  19   1     0.02  -0.02   0.00     0.05   0.04   0.02     0.06  -0.01   0.03
  20   1     0.02  -0.00  -0.00     0.13   0.07  -0.00     0.16   0.04  -0.01
  21   1    -0.09  -0.08   0.06     0.20   0.06  -0.11    -0.02  -0.02   0.04
  22   1     0.00  -0.08  -0.05     0.04   0.00   0.16    -0.00  -0.05   0.04
  23   1    -0.22  -0.11   0.50    -0.13  -0.21   0.13     0.06   0.04  -0.07
  24   1    -0.13  -0.19   0.44     0.10  -0.04   0.07     0.02   0.05  -0.05
  25   1     0.03   0.01  -0.06     0.08   0.20  -0.03    -0.08  -0.09   0.11
  26   1     0.09   0.12  -0.10     0.00   0.02   0.07     0.17   0.31  -0.06
                     22                     23                     24
                        a                      a                      a 
 Frequencies --   651.4722               664.1379               742.3817
 Red. masses --    10.6216                 7.3277                 3.4037
 Frc consts  --     0.0000                 0.0000                 0.0000
 IR Inten    --   122.1248               115.7629               113.3856
 Raman Activ --     0.0000                 0.0000                 0.0000
 Depolar     --     0.0000                 0.0000                 0.0000
 Atom AN      X      Y      Z        X      Y      Z        X      Y      Z
   1   6    -0.01   0.04   0.02    -0.05  -0.01  -0.01     0.00   0.02   0.01
   2   6    -0.00   0.04  -0.05    -0.01  -0.06   0.03     0.02  -0.02   0.00
   3   6    -0.11   0.08  -0.16     0.07  -0.04   0.07     0.03  -0.03   0.02
   4   6    -0.12  -0.02   0.07     0.04   0.06   0.00     0.01   0.01  -0.03
   5   8     0.14   0.27   0.01    -0.09  -0.06   0.12    -0.01   0.01   0.03
   6   8     0.07  -0.05   0.17    -0.10  -0.16  -0.14    -0.02   0.01  -0.04
   7   7     0.03  -0.02   0.01    -0.00   0.03  -0.00    -0.00  -0.00  -0.00
   8   6    -0.05  -0.12   0.10     0.03   0.19  -0.21     0.00   0.01   0.01
   9   7     0.03  -0.28  -0.35     0.07   0.12  -0.08    -0.01   0.03   0.08
  10   6    -0.09   0.09   0.50    -0.06  -0.06   0.49    -0.06  -0.00   0.14
  11   7     0.11   0.08  -0.16     0.02  -0.01  -0.19     0.01  -0.02  -0.15
  12   7    -0.03   0.01  -0.18     0.08  -0.14  -0.07     0.12  -0.03  -0.33
  13   1     0.02  -0.01  -0.03    -0.05   0.03   0.05    -0.01  -0.02  -0.01
  14   1    -0.03   0.04  -0.00     0.01  -0.03   0.01    -0.01   0.02  -0.01
  15   1     0.01   0.03   0.10    -0.01  -0.04  -0.04     0.00  -0.01  -0.03
  16   1     0.08  -0.06  -0.05    -0.05   0.01   0.03    -0.02   0.01   0.01
  17   1    -0.02  -0.01  -0.05     0.02   0.00   0.02     0.00  -0.00   0.01
  18   1    -0.02  -0.14  -0.09     0.15   0.44   0.24     0.03   0.08   0.02
  19   1     0.02  -0.01   0.01    -0.00   0.01  -0.00    -0.01   0.00  -0.00
  20   1     0.08   0.02  -0.00    -0.03  -0.00   0.00    -0.02  -0.00   0.00
  21   1    -0.05   0.01   0.02     0.00   0.02  -0.04    -0.01  -0.01   0.01
  22   1     0.01  -0.07   0.03    -0.01   0.08  -0.07     0.01  -0.01  -0.02
  23   1    -0.04  -0.02   0.10    -0.06   0.03   0.13    -0.06  -0.03   0.09
  24   1     0.06   0.01   0.04    -0.09  -0.08   0.12    -0.00  -0.02   0.03
  25   1     0.00  -0.05  -0.11     0.07  -0.07  -0.22    -0.20   0.07   0.86
  26   1    -0.14  -0.21   0.23     0.11   0.20  -0.12    -0.02  -0.03   0.01
                     25                     26                     27
                        a                      a                      a 
 Frequencies --   753.9838               814.1101               874.2483
 Red. masses --     9.0057                 6.0550                 8.6158
 Frc consts  --     0.0000                 0.0000                 0.0000
 IR Inten    --     4.4529                16.2527                13.6450
 Raman Activ --     0.0000                 0.0000                 0.0000
 Depolar     --     0.0000                 0.0000                 0.0000
 Atom AN      X      Y      Z        X      Y      Z        X      Y      Z
   1   6    -0.12  -0.01  -0.09    -0.16   0.02  -0.17     0.04  -0.09   0.00
   2   6    -0.17   0.11   0.07     0.02   0.05  -0.14    -0.23   0.15  -0.03
   3   6    -0.20   0.17  -0.12     0.16  -0.07   0.22    -0.12   0.03  -0.05
   4   6    -0.02  -0.17   0.01     0.05   0.09   0.00     0.52   0.20   0.06
   5   8     0.08  -0.16  -0.29    -0.02   0.08   0.14    -0.01  -0.11  -0.03
   6   8     0.04  -0.11   0.37    -0.02   0.13  -0.28    -0.03  -0.10   0.03
   7   7     0.02   0.01   0.00     0.03   0.02   0.00    -0.05  -0.03   0.01
   8   6     0.01   0.15  -0.28    -0.18  -0.22   0.09     0.08  -0.09   0.14
   9   7    -0.03   0.11   0.14    -0.05  -0.16  -0.01     0.21   0.08  -0.08
  10   6     0.11  -0.06   0.06     0.02   0.00   0.01    -0.11   0.06  -0.00
  11   7     0.08   0.07  -0.01     0.01   0.04  -0.01    -0.21  -0.16  -0.04
  12   7     0.03  -0.12  -0.01    -0.01  -0.01  -0.01    -0.06   0.17  -0.04
  13   1    -0.01   0.22   0.14     0.12   0.34   0.11     0.13  -0.01  -0.07
  14   1     0.14  -0.21   0.08     0.15  -0.30   0.13    -0.03  -0.02   0.02
  15   1    -0.04   0.05   0.20    -0.04  -0.12   0.17    -0.03   0.13   0.29
  16   1     0.11  -0.03  -0.04     0.25   0.08  -0.09     0.18  -0.08  -0.09
  17   1    -0.04   0.07  -0.03     0.06  -0.06   0.05    -0.02  -0.09  -0.03
  18   1    -0.01  -0.08   0.06     0.00   0.05  -0.03    -0.04  -0.03   0.22
  19   1     0.06  -0.01   0.02    -0.01   0.04  -0.05    -0.06  -0.01  -0.00
  20   1     0.12   0.03  -0.01    -0.14  -0.05   0.01    -0.04  -0.00   0.01
  21   1     0.21   0.08  -0.14     0.21   0.04  -0.07    -0.06  -0.07   0.07
  22   1    -0.04   0.12   0.13    -0.07   0.00   0.30    -0.00  -0.01  -0.06
  23   1     0.06   0.11  -0.01    -0.01  -0.01   0.02    -0.10  -0.13   0.02
  24   1    -0.06  -0.01  -0.00     0.03   0.02   0.00     0.01  -0.03   0.01
  25   1    -0.02  -0.07   0.08    -0.01  -0.04   0.01     0.01   0.13  -0.01
  26   1    -0.01  -0.09  -0.07     0.01   0.04   0.04    -0.00  -0.09  -0.19
                     28                     29                     30
                        a                      a                      a 
 Frequencies --   942.0580               949.3548               995.4289
 Red. masses --     8.6415                 6.8142                 6.3910
 Frc consts  --     0.0000                 0.0000                 0.0000
 IR Inten    --     6.2036                23.3073               126.7309
 Raman Activ --     0.0000                 0.0000                 0.0000
 Depolar     --     0.0000                 0.0000                 0.0000
 Atom AN      X      Y      Z        X      Y      Z        X      Y      Z
   1   6     0.03  -0.41  -0.04     0.09   0.03   0.06     0.15  -0.19   0.07
   2   6     0.35  -0.01  -0.32     0.21   0.15   0.13    -0.09   0.24   0.00
   3   6    -0.13   0.19   0.17    -0.01  -0.06  -0.26    -0.01  -0.18   0.01
   4   6    -0.02   0.04  -0.02     0.30   0.13  -0.00    -0.19  -0.07   0.11
   5   8     0.03  -0.07  -0.08    -0.02   0.05   0.09     0.01  -0.04  -0.07
   6   8     0.00  -0.06   0.10     0.02  -0.02  -0.04    -0.02   0.04  -0.05
   7   7    -0.03   0.08   0.03    -0.19  -0.14   0.01     0.40  -0.01  -0.06
   8   6    -0.30   0.13   0.20    -0.37  -0.14  -0.04    -0.15   0.10   0.01
   9   7     0.06   0.11  -0.04    -0.08  -0.00   0.00    -0.09   0.08  -0.01
  10   6    -0.00   0.01   0.03     0.03  -0.03   0.03    -0.02  -0.02   0.02
  11   7    -0.00  -0.04  -0.01     0.02   0.01  -0.01     0.10   0.01   0.02
  12   7     0.01   0.00  -0.00     0.00  -0.04   0.00     0.02  -0.06   0.00
  13   1     0.04  -0.09  -0.01    -0.12  -0.10   0.03     0.04  -0.15  -0.06
  14   1    -0.07  -0.14   0.05     0.19   0.11  -0.16     0.02   0.06  -0.07
  15   1     0.15   0.14  -0.15     0.10   0.16  -0.17     0.06   0.28   0.16
  16   1     0.03   0.05  -0.06    -0.18   0.02   0.09     0.07  -0.05  -0.05
  17   1    -0.12   0.05   0.05     0.03  -0.00  -0.07     0.07  -0.24  -0.04
  18   1     0.00  -0.01   0.02    -0.02  -0.03   0.10     0.02   0.04  -0.09
  19   1     0.28   0.09  -0.10    -0.10  -0.10   0.10    -0.39   0.02  -0.04
  20   1    -0.02  -0.11  -0.02     0.13   0.05   0.00    -0.33   0.09   0.05
  21   1    -0.10   0.02   0.06     0.18   0.13  -0.13    -0.04   0.08  -0.01
  22   1    -0.19   0.17   0.03    -0.11   0.03   0.34    -0.08   0.09   0.04
  23   1     0.01   0.02  -0.00     0.02   0.04   0.00     0.07   0.10  -0.02
  24   1    -0.05  -0.03   0.03    -0.02  -0.01   0.01    -0.07  -0.03   0.01
  25   1     0.01   0.03   0.00    -0.00  -0.02  -0.00     0.01   0.02   0.00
  26   1     0.00  -0.01   0.01    -0.02  -0.06  -0.11     0.01   0.03   0.04
                     31                     32                     33
                        a                      a                      a 
 Frequencies --  1014.6197              1026.2862              1032.8704
 Red. masses --     7.1742                 6.6099                 5.4485
 Frc consts  --     0.0000                 0.0000                 0.0000
 IR Inten    --    22.6992                99.5203                17.2336
 Raman Activ --     0.0000                 0.0000                 0.0000
 Depolar     --     0.0000                 0.0000                 0.0000
 Atom AN      X      Y      Z        X      Y      Z        X      Y      Z
   1   6    -0.00   0.06   0.16    -0.04   0.05  -0.12     0.01  -0.15  -0.05
   2   6    -0.02  -0.10  -0.17     0.10  -0.08   0.06     0.00   0.15   0.07
   3   6    -0.10   0.09   0.13    -0.16  -0.02  -0.04     0.14  -0.06  -0.06
   4   6     0.14   0.31   0.16     0.11   0.06  -0.38    -0.13  -0.10   0.18
   5   8     0.05  -0.12  -0.10    -0.06   0.09   0.10     0.01  -0.04  -0.06
   6   8     0.01  -0.00  -0.03     0.04  -0.14   0.23    -0.04   0.07  -0.09
   7   7     0.05   0.09   0.05     0.28  -0.02  -0.04    -0.15  -0.06  -0.02
   8   6     0.02  -0.01  -0.20    -0.02   0.04   0.06    -0.05   0.16   0.05
   9   7    -0.26  -0.12   0.05     0.06  -0.04   0.03     0.15   0.04   0.03
  10   6     0.00  -0.09  -0.03     0.01  -0.03  -0.03    -0.00  -0.04  -0.03
  11   7     0.03   0.24   0.00    -0.11   0.14  -0.01    -0.18   0.24  -0.03
  12   7     0.06  -0.17   0.03     0.02  -0.07   0.04     0.06  -0.16   0.03
  13   1    -0.15  -0.12   0.03    -0.00   0.10   0.04     0.05   0.00  -0.01
  14   1    -0.11   0.12  -0.00     0.04  -0.07   0.02     0.04  -0.07  -0.01
  15   1     0.03   0.06   0.04     0.02  -0.02  -0.14     0.01   0.07   0.04
  16   1    -0.02  -0.22  -0.08    -0.07   0.10   0.06     0.05   0.10   0.02
  17   1    -0.04  -0.17   0.00    -0.32   0.19   0.05     0.22  -0.03  -0.04
  18   1    -0.01  -0.00   0.02    -0.01  -0.04   0.10     0.02   0.03  -0.09
  19   1     0.18   0.11  -0.12    -0.31   0.01  -0.03    -0.02  -0.09   0.10
  20   1    -0.16  -0.11   0.00    -0.28   0.09   0.05     0.24   0.05  -0.02
  21   1     0.00   0.12  -0.08    -0.01  -0.06   0.04    -0.05  -0.06   0.06
  22   1     0.14  -0.18   0.07    -0.01   0.02  -0.02    -0.11   0.16  -0.08
  23   1    -0.07  -0.12   0.04    -0.12  -0.21   0.03    -0.21  -0.36   0.07
  24   1     0.26   0.15  -0.02     0.24   0.12  -0.01     0.40   0.20   0.00
  25   1    -0.02  -0.20   0.01    -0.01  -0.12  -0.01    -0.02  -0.19  -0.00
  26   1     0.01  -0.04  -0.05    -0.00   0.05   0.06     0.00  -0.01  -0.01
                     34                     35                     36
                        a                      a                      a 
 Frequencies --  1062.1923              1075.4288              1095.2015
 Red. masses --    10.5383                 8.0955                 8.0590
 Frc consts  --     0.0000                 0.0000                 0.0000
 IR Inten    --   132.3201                47.0029                81.9390
 Raman Activ --     0.0000                 0.0000                 0.0000
 Depolar     --     0.0000                 0.0000                 0.0000
 Atom AN      X      Y      Z        X      Y      Z        X      Y      Z
   1   6    -0.07   0.13  -0.03     0.14  -0.11  -0.23     0.22  -0.02   0.10
   2   6     0.13  -0.08   0.04    -0.05  -0.13   0.11    -0.19   0.04  -0.03
   3   6     0.01   0.01  -0.05    -0.00  -0.08   0.02     0.32  -0.03   0.02
   4   6    -0.21   0.47   0.29     0.07   0.38   0.08    -0.10   0.20  -0.41
   5   8     0.06  -0.27  -0.31     0.04  -0.10  -0.09    -0.08  -0.02  -0.08
   6   8    -0.08  -0.08   0.15    -0.00  -0.06   0.05     0.02  -0.14   0.25
   7   7     0.05  -0.06   0.01    -0.03  -0.01  -0.08    -0.17  -0.02   0.05
   8   6     0.01  -0.12   0.04    -0.07   0.13   0.17    -0.12  -0.06  -0.02
   9   7     0.20   0.00  -0.03    -0.34   0.00  -0.09    -0.02   0.15  -0.01
  10   6     0.11   0.08   0.03    -0.11  -0.09  -0.02     0.03  -0.01   0.01
  11   7    -0.15  -0.16  -0.03     0.23   0.12   0.03    -0.02   0.01  -0.01
  12   7     0.01   0.19  -0.03     0.02  -0.16   0.01     0.04  -0.01   0.03
  13   1    -0.06   0.07   0.05     0.22   0.08  -0.10     0.18  -0.13  -0.16
  14   1     0.08  -0.00  -0.02    -0.06  -0.12   0.06     0.08   0.14  -0.11
  15   1     0.00  -0.10  -0.12    -0.02  -0.06  -0.00    -0.13  -0.22   0.13
  16   1    -0.08   0.01   0.05     0.05   0.19   0.06     0.11  -0.06  -0.07
  17   1     0.02   0.01  -0.01     0.07   0.19   0.03     0.03  -0.09  -0.01
  18   1     0.09   0.11  -0.28     0.00   0.01   0.01    -0.00  -0.03   0.04
  19   1    -0.15  -0.02   0.01    -0.14  -0.09   0.11     0.11  -0.00   0.00
  20   1    -0.09   0.03   0.02     0.20   0.12  -0.01    -0.01  -0.10  -0.01
  21   1     0.09  -0.08   0.00    -0.19   0.09   0.07     0.03   0.06  -0.04
  22   1    -0.04   0.04   0.04     0.11  -0.16  -0.07    -0.09   0.07   0.09
  23   1    -0.05  -0.07   0.01     0.11   0.16  -0.01    -0.01  -0.02   0.01
  24   1    -0.08  -0.06   0.01    -0.01   0.02  -0.01     0.02   0.01   0.01
  25   1    -0.03  -0.08  -0.00     0.02   0.05   0.02    -0.01  -0.09   0.00
  26   1     0.02   0.03   0.06     0.00  -0.03  -0.04     0.02   0.18   0.30
                     37                     38                     39
                        a                      a                      a 
 Frequencies --  1116.1762              1134.3289              1145.6895
 Red. masses --     7.4158                 8.1693                 4.0917
 Frc consts  --     0.0000                 0.0000                 0.0000
 IR Inten    --    42.4000                71.1165                31.1245
 Raman Activ --     0.0000                 0.0000                 0.0000
 Depolar     --     0.0000                 0.0000                 0.0000
 Atom AN      X      Y      Z        X      Y      Z        X      Y      Z
   1   6     0.31   0.19  -0.18     0.20   0.02  -0.16     0.07  -0.04   0.25
   2   6    -0.16  -0.28   0.11    -0.13  -0.15   0.07     0.01  -0.00  -0.17
   3   6    -0.19  -0.03   0.00    -0.14  -0.14   0.09     0.01   0.15  -0.00
   4   6    -0.04  -0.14   0.19     0.09  -0.07  -0.01     0.00  -0.14   0.12
   5   8     0.05  -0.01   0.02    -0.01   0.06   0.05     0.06   0.03   0.09
   6   8    -0.03   0.04  -0.07    -0.00   0.05  -0.06    -0.05   0.03  -0.02
   7   7     0.11   0.14   0.01     0.06   0.12  -0.07     0.01  -0.11   0.01
   8   6    -0.19   0.00   0.13    -0.14   0.22  -0.01    -0.05  -0.13  -0.20
   9   7     0.14   0.17  -0.07    -0.12  -0.19   0.07     0.00   0.13   0.02
  10   6    -0.08  -0.04  -0.00     0.26   0.12   0.04     0.05   0.02   0.02
  11   7     0.01   0.09   0.00    -0.16  -0.23  -0.02    -0.06  -0.03  -0.01
  12   7    -0.03  -0.14  -0.00     0.13   0.31   0.01     0.04   0.03   0.00
  13   1     0.16   0.03  -0.12     0.07   0.02  -0.05     0.23  -0.12  -0.17
  14   1     0.27   0.09  -0.18     0.03   0.00  -0.03    -0.25   0.12   0.08
  15   1    -0.10  -0.21  -0.01     0.01   0.08   0.04    -0.10  -0.27   0.01
  16   1    -0.09  -0.16   0.03    -0.02  -0.03   0.02     0.17   0.20  -0.05
  17   1    -0.15  -0.03   0.01     0.01  -0.01   0.02    -0.13   0.34   0.07
  18   1     0.02   0.03  -0.07    -0.02  -0.02   0.00     0.05   0.07  -0.17
  19   1     0.18   0.10  -0.09     0.07   0.02   0.01    -0.17  -0.05   0.03
  20   1    -0.06  -0.06  -0.01     0.12   0.04  -0.03    -0.05   0.06   0.03
  21   1     0.06  -0.04   0.01    -0.10   0.14  -0.01    -0.01   0.19  -0.12
  22   1    -0.11   0.10   0.09     0.01  -0.01  -0.01    -0.03   0.01   0.12
  23   1    -0.01  -0.01   0.01    -0.05  -0.08  -0.01    -0.03  -0.04   0.00
  24   1     0.08   0.05   0.01    -0.14  -0.10  -0.00    -0.00  -0.01   0.00
  25   1     0.04   0.16  -0.01    -0.12  -0.52   0.01    -0.02  -0.13  -0.01
  26   1    -0.01  -0.11  -0.17    -0.01  -0.00   0.02    -0.02  -0.16  -0.26
                     40                     41                     42
                        a                      a                      a 
 Frequencies --  1164.7652              1183.7075              1211.7310
 Red. masses --     8.0076                 6.7224                 6.0935
 Frc consts  --     0.0000                 0.0000                 0.0000
 IR Inten    --    83.9348               146.8168                30.6014
 Raman Activ --     0.0000                 0.0000                 0.0000
 Depolar     --     0.0000                 0.0000                 0.0000
 Atom AN      X      Y      Z        X      Y      Z        X      Y      Z
   1   6    -0.04   0.14   0.16    -0.14  -0.06   0.09     0.05  -0.07   0.18
   2   6     0.06  -0.08  -0.07     0.05   0.22   0.12     0.01   0.11  -0.13
   3   6    -0.36  -0.30   0.24    -0.06  -0.44  -0.06    -0.15  -0.08   0.03
   4   6    -0.06   0.01   0.02    -0.01   0.10  -0.19     0.07   0.13   0.10
   5   8    -0.06  -0.06  -0.11     0.06   0.05   0.12     0.01  -0.01  -0.02
   6   8     0.06   0.01  -0.06    -0.11  -0.06   0.17     0.05   0.02  -0.07
   7   7     0.16   0.17  -0.19     0.04   0.22  -0.07     0.05   0.03  -0.07
   8   6    -0.01  -0.25  -0.08     0.11  -0.08  -0.00     0.07   0.22  -0.08
   9   7     0.15   0.21  -0.02    -0.05   0.07  -0.04    -0.11  -0.42   0.09
  10   6     0.01  -0.01   0.02    -0.02  -0.01  -0.01    -0.03  -0.01  -0.02
  11   7    -0.05   0.02  -0.01     0.02   0.01   0.01     0.07   0.02   0.02
  12   7    -0.02  -0.05  -0.00     0.03  -0.01   0.01    -0.06   0.05  -0.02
  13   1     0.07  -0.02  -0.06     0.02   0.01   0.01    -0.13  -0.13   0.06
  14   1    -0.15   0.08   0.06     0.00  -0.02   0.01     0.21   0.11  -0.15
  15   1     0.05   0.07  -0.01    -0.01  -0.00   0.00    -0.14  -0.35   0.01
  16   1     0.04   0.14   0.01     0.05   0.25   0.06     0.15   0.21  -0.04
  17   1     0.10   0.01   0.05    -0.21  -0.27  -0.02    -0.09   0.03   0.02
  18   1    -0.07  -0.10   0.24     0.09   0.13  -0.33    -0.04  -0.05   0.13
  19   1     0.00  -0.02   0.06     0.26   0.07  -0.04    -0.03  -0.01   0.02
  20   1     0.31   0.16  -0.05     0.10  -0.06  -0.05     0.07   0.06  -0.01
  21   1     0.09   0.03  -0.07    -0.02  -0.01   0.01     0.08  -0.20   0.05
  22   1    -0.02  -0.01   0.12     0.02  -0.01  -0.01    -0.19   0.33  -0.11
  23   1    -0.03  -0.04   0.01     0.01   0.02  -0.00     0.03   0.02  -0.01
  24   1     0.04   0.02   0.00    -0.00   0.00  -0.00    -0.02  -0.01   0.01
  25   1     0.02   0.08   0.00    -0.00  -0.05  -0.01    -0.00   0.08   0.01
  26   1     0.02   0.14   0.24    -0.03  -0.17  -0.27     0.00   0.01   0.03
                     43                     44                     45
                        a                      a                      a 
 Frequencies --  1220.4026              1236.0592              1255.1822
 Red. masses --     5.7706                 3.9964                 6.2229
 Frc consts  --     0.0000                 0.0000                 0.0000
 IR Inten    --   131.0187                23.0140                78.6074
 Raman Activ --     0.0000                 0.0000                 0.0000
 Depolar     --     0.0000                 0.0000                 0.0000
 Atom AN      X      Y      Z        X      Y      Z        X      Y      Z
   1   6     0.12   0.11   0.01    -0.03   0.13   0.01    -0.12   0.07   0.07
   2   6    -0.14  -0.14  -0.22     0.04  -0.10   0.19     0.06  -0.01  -0.06
   3   6     0.07  -0.05   0.33     0.06  -0.02  -0.09    -0.05   0.08   0.12
   4   6     0.03   0.06  -0.24     0.04   0.09   0.00    -0.02   0.00  -0.07
   5   8     0.04   0.03   0.09    -0.00   0.01   0.00     0.04   0.01   0.06
   6   8    -0.11  -0.04   0.15     0.01   0.00   0.00     0.00  -0.02   0.01
   7   7    -0.03   0.00  -0.09    -0.03   0.02   0.04     0.02  -0.04  -0.01
   8   6    -0.08   0.06  -0.04     0.01   0.03  -0.22     0.18  -0.19   0.15
   9   7     0.09  -0.17   0.07    -0.05  -0.30   0.10    -0.27   0.25  -0.23
  10   6     0.00  -0.00  -0.00    -0.01  -0.01  -0.01    -0.17  -0.03  -0.04
  11   7     0.00   0.02   0.00     0.04   0.03   0.01     0.11   0.02   0.02
  12   7    -0.08  -0.03  -0.01    -0.06   0.01  -0.01     0.18   0.04   0.04
  13   1    -0.18  -0.05   0.08     0.43   0.11  -0.24     0.06   0.02  -0.04
  14   1     0.02   0.07  -0.03    -0.36   0.01   0.20     0.09   0.02  -0.04
  15   1     0.09   0.29   0.12     0.10   0.21  -0.04     0.03   0.02  -0.02
  16   1     0.00  -0.20  -0.10    -0.12  -0.08   0.08    -0.07  -0.20  -0.03
  17   1     0.11   0.25   0.11    -0.00  -0.08  -0.03     0.19   0.04   0.01
  18   1     0.10   0.14  -0.33     0.00   0.00  -0.01    -0.03  -0.04   0.08
  19   1    -0.10  -0.08   0.10     0.07   0.03  -0.03    -0.07  -0.02   0.02
  20   1     0.19   0.10  -0.02    -0.06  -0.06   0.00     0.02   0.04   0.01
  21   1     0.10  -0.10  -0.00     0.10  -0.11  -0.04     0.16  -0.31   0.07
  22   1    -0.04   0.05   0.02    -0.24   0.35  -0.02    -0.18   0.24  -0.11
  23   1    -0.00  -0.01   0.00     0.01  -0.01  -0.01     0.06   0.07  -0.02
  24   1     0.02   0.01   0.00     0.00   0.00   0.01    -0.04  -0.02   0.01
  25   1     0.03   0.20  -0.02     0.01   0.13  -0.00    -0.06  -0.41   0.02
  26   1    -0.01  -0.09  -0.15     0.00   0.01   0.02    -0.01  -0.11  -0.17
                     46                     47                     48
                        a                      a                      a 
 Frequencies --  1281.0238              1321.5373              1329.1229
 Red. masses --     4.8705                 3.8710                 4.5082
 Frc consts  --     0.0000                 0.0000                 0.0000
 IR Inten    --    55.0484                16.3866                 6.8020
 Raman Activ --     0.0000                 0.0000                 0.0000
 Depolar     --     0.0000                 0.0000                 0.0000
 Atom AN      X      Y      Z        X      Y      Z        X      Y      Z
   1   6    -0.03   0.03   0.06     0.13  -0.00  -0.19    -0.40  -0.11   0.16
   2   6    -0.13  -0.04  -0.07     0.07   0.30   0.04     0.15   0.12  -0.05
   3   6     0.30  -0.27  -0.15     0.12  -0.05   0.14    -0.02  -0.01   0.14
   4   6     0.02  -0.04   0.27    -0.04   0.02   0.08     0.06  -0.04   0.03
   5   8    -0.05  -0.02  -0.09     0.01  -0.01  -0.01    -0.02   0.00  -0.02
   6   8     0.01   0.03  -0.07     0.02   0.01  -0.03    -0.02   0.01  -0.00
   7   7    -0.06   0.07   0.02    -0.02   0.02  -0.16     0.00  -0.00  -0.09
   8   6     0.02   0.00   0.03     0.10  -0.15   0.02     0.02   0.16  -0.06
   9   7    -0.05   0.07  -0.08    -0.03   0.01   0.01     0.02  -0.06   0.05
  10   6    -0.08   0.00  -0.02     0.01  -0.00   0.01     0.04   0.01   0.01
  11   7     0.03   0.00   0.01     0.01   0.01  -0.00    -0.02  -0.01  -0.00
  12   7     0.06  -0.01   0.01    -0.00  -0.01  -0.00    -0.02  -0.00  -0.01
  13   1    -0.04  -0.01   0.02    -0.16   0.01   0.10     0.43   0.06  -0.26
  14   1     0.05   0.04  -0.04    -0.21  -0.08   0.14     0.36   0.02  -0.22
  15   1     0.09   0.31   0.11    -0.09  -0.21  -0.00     0.02  -0.03  -0.06
  16   1     0.05   0.05  -0.03    -0.15  -0.44  -0.05    -0.10  -0.34  -0.05
  17   1    -0.50   0.39   0.11    -0.40  -0.08   0.08    -0.13   0.02   0.06
  18   1    -0.02  -0.03   0.04    -0.02  -0.02   0.06     0.02   0.03  -0.07
  19   1     0.11   0.01   0.01    -0.10  -0.10   0.12    -0.07  -0.05   0.06
  20   1    -0.02  -0.08  -0.01     0.18   0.06  -0.04     0.11   0.05  -0.02
  21   1     0.11  -0.17   0.03    -0.20   0.18   0.00    -0.04   0.06  -0.01
  22   1     0.01  -0.01   0.01    -0.14   0.18   0.04     0.16  -0.17  -0.03
  23   1     0.02   0.03  -0.00    -0.00  -0.01   0.00    -0.01   0.00   0.00
  24   1    -0.01  -0.00   0.00    -0.00  -0.00   0.01     0.01   0.00  -0.00
  25   1    -0.01  -0.10   0.01     0.00   0.01   0.00     0.01   0.05  -0.00
  26   1     0.01   0.10   0.16    -0.00  -0.01  -0.01     0.00   0.04   0.06
                     49                     50                     51
                        a                      a                      a 
 Frequencies --  1333.1913              1358.6292              1364.6907
 Red. masses --     3.7953                 6.0891                 5.3076
 Frc consts  --     0.0000                 0.0000                 0.0000
 IR Inten    --    13.3042                31.8113                10.4612
 Raman Activ --     0.0000                 0.0000                 0.0000
 Depolar     --     0.0000                 0.0000                 0.0000
 Atom AN      X      Y      Z        X      Y      Z        X      Y      Z
   1   6    -0.14   0.04  -0.01    -0.03   0.06   0.00    -0.03   0.03   0.05
   2   6    -0.04  -0.13  -0.05    -0.03  -0.22  -0.02    -0.07  -0.25  -0.01
   3   6     0.05  -0.09  -0.05    -0.02   0.27   0.06     0.23   0.27   0.13
   4   6    -0.16   0.11  -0.03     0.38  -0.19   0.07    -0.31   0.09  -0.04
   5   8     0.05  -0.01   0.03    -0.10   0.01  -0.08     0.09  -0.01   0.06
   6   8     0.06  -0.01  -0.02    -0.12   0.02   0.05     0.10  -0.01  -0.04
   7   7     0.00   0.01   0.07    -0.04  -0.04  -0.07    -0.03  -0.03  -0.13
   8   6     0.25  -0.23   0.03     0.15  -0.13   0.01    -0.04   0.05  -0.02
   9   7    -0.05  -0.04   0.07    -0.06   0.03   0.00     0.04  -0.00  -0.01
  10   6     0.11  -0.01   0.03    -0.18   0.01  -0.04     0.07  -0.02   0.02
  11   7    -0.01   0.01  -0.01     0.06   0.02   0.01    -0.03  -0.01  -0.00
  12   7    -0.05  -0.00  -0.01     0.06  -0.04   0.02    -0.03   0.04  -0.01
  13   1    -0.01   0.06   0.01    -0.04   0.02   0.02     0.04  -0.00  -0.03
  14   1     0.26   0.04  -0.17     0.10   0.03  -0.06     0.07   0.03  -0.04
  15   1     0.07   0.18   0.02     0.04   0.08  -0.00     0.07   0.17  -0.01
  16   1     0.02   0.06  -0.00     0.05   0.21   0.04     0.09   0.21   0.02
  17   1     0.12   0.19   0.01    -0.16  -0.29  -0.03    -0.34  -0.41   0.00
  18   1    -0.04  -0.06   0.15     0.09   0.13  -0.32    -0.07  -0.10   0.26
  19   1     0.06   0.04  -0.04    -0.09  -0.05   0.04    -0.14  -0.10   0.10
  20   1    -0.08  -0.04   0.02     0.10   0.06  -0.02     0.15   0.06  -0.03
  21   1    -0.38   0.48  -0.03    -0.17   0.14   0.01     0.06  -0.08   0.00
  22   1    -0.18   0.26  -0.07    -0.12   0.17   0.02     0.05  -0.06   0.04
  23   1    -0.02  -0.06  -0.00     0.03   0.06   0.00    -0.01  -0.01  -0.00
  24   1    -0.00  -0.00   0.01     0.01   0.00   0.02     0.00  -0.00  -0.01
  25   1     0.01   0.09  -0.00    -0.00  -0.07   0.00    -0.01   0.00  -0.00
  26   1    -0.01  -0.08  -0.12     0.02   0.18   0.29    -0.01  -0.15  -0.24
                     52                     53                     54
                        a                      a                      a 
 Frequencies --  1426.5467              1476.5043              1484.0552
 Red. masses --     8.6958                 1.9792                 3.2327
 Frc consts  --     0.0000                 0.0000                 0.0000
 IR Inten    --   238.4193                 8.5859                69.9222
 Raman Activ --     0.0000                 0.0000                 0.0000
 Depolar     --     0.0000                 0.0000                 0.0000
 Atom AN      X      Y      Z        X      Y      Z        X      Y      Z
   1   6     0.01   0.00   0.02     0.02  -0.16  -0.00    -0.00   0.02   0.01
   2   6    -0.00  -0.01  -0.00    -0.13   0.02   0.16    -0.07   0.02   0.10
   3   6     0.00   0.05   0.00    -0.02  -0.01   0.01     0.00  -0.01   0.02
   4   6     0.09  -0.05   0.03     0.01  -0.01   0.01     0.00   0.02   0.00
   5   8    -0.02   0.01  -0.01    -0.00   0.00  -0.00    -0.00  -0.01  -0.01
   6   8    -0.02   0.00   0.00    -0.01  -0.00  -0.00     0.00  -0.00  -0.00
   7   7     0.00  -0.01  -0.01     0.00  -0.00   0.01    -0.00   0.01  -0.01
   8   6     0.03  -0.05   0.12     0.05   0.00  -0.05    -0.12  -0.06   0.14
   9   7    -0.39   0.13  -0.15    -0.05   0.03  -0.03     0.15  -0.07   0.07
  10   6     0.52   0.24   0.10     0.07   0.03   0.01    -0.25  -0.05  -0.03
  11   7    -0.05   0.03  -0.00    -0.03  -0.02  -0.01     0.13   0.11   0.04
  12   7    -0.07  -0.27   0.00    -0.01  -0.02   0.00     0.04   0.04   0.00
  13   1    -0.01  -0.03  -0.01     0.05   0.33   0.24    -0.02  -0.03  -0.00
  14   1    -0.00  -0.02   0.02    -0.15   0.31  -0.20    -0.01  -0.02   0.03
  15   1    -0.00  -0.01  -0.00     0.02   0.06  -0.49     0.01   0.04  -0.29
  16   1     0.01   0.02   0.00     0.45  -0.16  -0.15     0.27  -0.09  -0.09
  17   1    -0.04  -0.04  -0.00     0.03   0.02   0.00    -0.05  -0.02   0.01
  18   1     0.01   0.03  -0.05     0.00   0.01  -0.01     0.00  -0.00   0.00
  19   1    -0.02  -0.01   0.01     0.01   0.01  -0.01     0.00  -0.01   0.01
  20   1     0.01   0.01  -0.00     0.00   0.01   0.00     0.02  -0.00  -0.01
  21   1     0.17  -0.06  -0.02    -0.14  -0.15   0.09     0.37   0.35  -0.22
  22   1    -0.02   0.02  -0.17     0.01   0.02   0.20    -0.02  -0.04  -0.50
  23   1    -0.11  -0.38  -0.06    -0.00   0.03   0.01    -0.00  -0.17  -0.07
  24   1    -0.23  -0.05  -0.08     0.03   0.00   0.01    -0.18  -0.02  -0.08
  25   1     0.07   0.23   0.01     0.01   0.02   0.00    -0.02  -0.07   0.00
  26   1     0.00   0.03   0.04     0.00   0.00   0.01     0.00  -0.00   0.00
                     55                     56                     57
                        a                      a                      a 
 Frequencies --  1492.6587              1505.3177              1562.6701
 Red. masses --     2.4267                 3.4426                 2.0726
 Frc consts  --     0.0000                 0.0000                 0.0000
 IR Inten    --    39.6203               157.1746                40.6629
 Raman Activ --     0.0000                 0.0000                 0.0000
 Depolar     --     0.0000                 0.0000                 0.0000
 Atom AN      X      Y      Z        X      Y      Z        X      Y      Z
   1   6     0.03  -0.23  -0.01     0.02  -0.07   0.00    -0.00   0.00   0.01
   2   6     0.09  -0.02  -0.12     0.02  -0.00  -0.02     0.01  -0.01  -0.00
   3   6     0.01   0.01   0.00     0.01   0.01   0.00    -0.09   0.04  -0.02
   4   6    -0.02   0.01  -0.01     0.02  -0.02   0.02     0.01  -0.02   0.00
   5   8     0.00  -0.00   0.00    -0.00   0.01  -0.00    -0.00   0.00  -0.00
   6   8     0.00  -0.00   0.00    -0.01   0.00  -0.00     0.00   0.00  -0.00
   7   7    -0.00   0.00  -0.01     0.00   0.00  -0.01     0.10   0.23  -0.09
   8   6    -0.04  -0.00   0.02    -0.04  -0.05   0.13     0.00  -0.00  -0.00
   9   7     0.08  -0.02   0.03    -0.14   0.03  -0.03    -0.00   0.00  -0.00
  10   6    -0.13   0.01  -0.01     0.24  -0.03   0.01     0.00   0.01  -0.00
  11   7     0.10   0.09   0.04    -0.21  -0.20  -0.08    -0.00  -0.00  -0.00
  12   7     0.02  -0.01   0.01    -0.04   0.04  -0.01     0.00  -0.01   0.00
  13   1     0.10   0.42   0.28     0.03   0.13   0.09    -0.00  -0.00   0.00
  14   1    -0.19   0.40  -0.26    -0.08   0.13  -0.07     0.01   0.00  -0.00
  15   1    -0.01  -0.06   0.34    -0.00  -0.01   0.06     0.00  -0.00  -0.02
  16   1    -0.32   0.09   0.10    -0.06   0.02   0.02     0.02   0.02  -0.00
  17   1    -0.01  -0.02  -0.00    -0.04  -0.02   0.00     0.07   0.03  -0.01
  18   1    -0.00  -0.01   0.01     0.00   0.01  -0.02    -0.00  -0.00  -0.00
  19   1    -0.01  -0.01   0.01    -0.01  -0.01   0.01    -0.07  -0.34   0.56
  20   1     0.00  -0.01  -0.00     0.01   0.00  -0.00    -0.14  -0.66  -0.14
  21   1     0.07   0.06  -0.04     0.26   0.14  -0.12    -0.01  -0.01   0.00
  22   1     0.02  -0.04  -0.07    -0.05   0.02  -0.36    -0.00   0.00   0.01
  23   1    -0.02  -0.19  -0.07     0.05   0.44   0.15     0.00   0.00   0.00
  24   1    -0.19  -0.02  -0.09     0.47   0.06   0.22     0.00  -0.00   0.00
  25   1    -0.00  -0.04   0.00     0.00   0.07  -0.01     0.00  -0.00   0.00
  26   1     0.00  -0.01  -0.01    -0.00   0.01   0.02    -0.00  -0.00   0.00
                     58                     59                     60
                        a                      a                      a 
 Frequencies --  1661.2592              2899.8563              2950.2542
 Red. masses --    11.9928                 1.7610                 1.7376
 Frc consts  --     0.0000                 0.0000                 0.0000
 IR Inten    --   419.8183                27.7977                34.1500
 Raman Activ --     0.0000                 0.0000                 0.0000
 Depolar     --     0.0000                 0.0000                 0.0000
 Atom AN      X      Y      Z        X      Y      Z        X      Y      Z
   1   6     0.00  -0.00  -0.00    -0.01   0.00  -0.02    -0.01  -0.00  -0.01
   2   6    -0.00  -0.00  -0.00     0.00  -0.00  -0.00    -0.01   0.01  -0.02
   3   6    -0.00   0.01  -0.00    -0.00   0.00  -0.02     0.04  -0.04   0.25
   4   6     0.04  -0.07   0.02     0.00   0.00  -0.00     0.00  -0.00   0.01
   5   8    -0.01   0.01  -0.00     0.00  -0.00  -0.00    -0.00   0.00  -0.00
   6   8    -0.01   0.01   0.00    -0.00   0.00  -0.00    -0.00   0.00  -0.00
   7   7     0.00   0.00  -0.00     0.00   0.00  -0.00    -0.00  -0.00   0.00
   8   6    -0.00  -0.00   0.02     0.09   0.10   0.22     0.01   0.01   0.02
   9   7    -0.12   0.11  -0.07     0.01  -0.01   0.01     0.00  -0.00   0.00
  10   6     0.20  -0.76   0.12    -0.00   0.00   0.00     0.00  -0.00   0.00
  11   7     0.06   0.14   0.02     0.00   0.00  -0.00    -0.00   0.00  -0.00
  12   7    -0.12   0.48  -0.07    -0.00  -0.00  -0.00    -0.00   0.00  -0.00
  13   1    -0.00   0.01   0.01     0.02  -0.03   0.03     0.01  -0.01   0.01
  14   1    -0.00   0.00  -0.00     0.02   0.04   0.05     0.01   0.02   0.02
  15   1    -0.00   0.00   0.00    -0.00   0.00  -0.00     0.02  -0.01  -0.00
  16   1    -0.00   0.00   0.00     0.00   0.00  -0.00     0.03  -0.02   0.11
  17   1    -0.01  -0.00  -0.00     0.01  -0.01   0.08    -0.12   0.16  -0.93
  18   1     0.01   0.04  -0.07    -0.00   0.00  -0.00     0.00  -0.00   0.00
  19   1    -0.00  -0.00   0.01     0.00   0.00   0.00    -0.00  -0.00  -0.00
  20   1    -0.00  -0.01  -0.00     0.00   0.00  -0.00    -0.00  -0.01   0.01
  21   1     0.00  -0.04   0.01    -0.26  -0.27  -0.88    -0.02  -0.02  -0.07
  22   1    -0.00   0.00   0.01    -0.07  -0.04   0.04    -0.00   0.00   0.00
  23   1    -0.03  -0.15  -0.03     0.00  -0.00   0.00     0.00  -0.00   0.00
  24   1    -0.02   0.03  -0.05    -0.00  -0.00   0.00     0.00  -0.00   0.00
  25   1    -0.05   0.12  -0.02     0.00   0.00   0.00     0.00   0.00   0.00
  26   1    -0.00   0.04   0.05    -0.00   0.00   0.00     0.00  -0.00   0.00
                     61                     62                     63
                        a                      a                      a 
 Frequencies --  2977.3106              2992.2802              2997.9620
 Red. masses --     1.9154                 1.6704                 1.7463
 Frc consts  --     0.0000                 0.0000                 0.0000
 IR Inten    --    15.0696                29.1619                51.2424
 Raman Activ --     0.0000                 0.0000                 0.0000
 Depolar     --     0.0000                 0.0000                 0.0000
 Atom AN      X      Y      Z        X      Y      Z        X      Y      Z
   1   6     0.12   0.06   0.22    -0.00  -0.15  -0.04     0.09  -0.11   0.13
   2   6    -0.06   0.04  -0.11    -0.10   0.05  -0.15     0.03  -0.03   0.15
   3   6    -0.00   0.00  -0.01    -0.01   0.00  -0.03     0.00  -0.00   0.03
   4   6     0.00   0.00  -0.00    -0.00  -0.00  -0.00     0.00   0.00   0.00
   5   8     0.00  -0.00  -0.00    -0.00   0.00   0.00    -0.00  -0.00  -0.00
   6   8    -0.00   0.00   0.00    -0.00   0.00   0.00     0.00  -0.00  -0.00
   7   7     0.00   0.00   0.00     0.00   0.00   0.00    -0.00  -0.00  -0.00
   8   6    -0.01  -0.01   0.03     0.03   0.02  -0.01     0.04   0.02   0.01
   9   7     0.00  -0.00   0.00     0.00   0.00  -0.00     0.00   0.00  -0.00
  10   6    -0.00   0.00   0.00     0.00  -0.00  -0.00    -0.00   0.00   0.00
  11   7    -0.00   0.00  -0.00     0.00  -0.00   0.00     0.00  -0.00  -0.00
  12   7    -0.00  -0.00  -0.00    -0.00   0.00   0.00     0.00  -0.00  -0.00
  13   1    -0.18   0.23  -0.26    -0.20   0.21  -0.31    -0.35   0.39  -0.51
  14   1    -0.25  -0.46  -0.53     0.21   0.34   0.43     0.02   0.01   0.04
  15   1     0.09  -0.03  -0.02     0.19  -0.07  -0.02     0.05  -0.02   0.02
  16   1     0.12  -0.09   0.41     0.16  -0.11   0.56    -0.17   0.12  -0.56
  17   1     0.00  -0.01   0.03     0.01  -0.01   0.08    -0.01   0.01  -0.08
  18   1     0.00  -0.00   0.00     0.00  -0.00   0.00    -0.00   0.00  -0.00
  19   1    -0.00  -0.00  -0.00    -0.00  -0.00  -0.00     0.00   0.00   0.00
  20   1    -0.00  -0.00  -0.00    -0.00  -0.00  -0.00     0.00   0.00   0.00
  21   1    -0.03  -0.02  -0.07     0.02   0.02   0.04    -0.00  -0.00  -0.02
  22   1     0.07   0.05  -0.00    -0.13  -0.10   0.01    -0.13  -0.09   0.01
  23   1    -0.00  -0.00   0.00     0.00  -0.00  -0.00    -0.00  -0.00   0.00
  24   1    -0.00  -0.00  -0.00     0.00   0.00   0.00    -0.00   0.00   0.00
  25   1     0.00  -0.00   0.00     0.00  -0.00  -0.00    -0.00   0.00   0.00
  26   1    -0.00   0.00   0.00     0.00   0.00   0.00     0.00  -0.00   0.00
                     64                     65                     66
                        a                      a                      a 
 Frequencies --  3006.0297              3017.1981              3290.5833
 Red. masses --     1.6800                 1.6674                 1.8672
 Frc consts  --     0.0000                 0.0000                 0.0000
 IR Inten    --    40.1604                34.7025               129.1191
 Raman Activ --     0.0000                 0.0000                 0.0000
 Depolar     --     0.0000                 0.0000                 0.0000
 Atom AN      X      Y      Z        X      Y      Z        X      Y      Z
   1   6     0.00   0.06   0.00    -0.02   0.03  -0.02     0.00   0.00   0.00
   2   6     0.00   0.00  -0.01    -0.22   0.08   0.03    -0.00   0.00   0.00
   3   6     0.00  -0.00   0.00    -0.01   0.00  -0.00    -0.00  -0.00  -0.00
   4   6    -0.00  -0.00  -0.00     0.00  -0.00   0.00    -0.00   0.01  -0.01
   5   8     0.00  -0.00   0.00     0.00   0.00   0.00     0.02  -0.01   0.01
   6   8     0.00  -0.00  -0.00     0.00  -0.00  -0.00    -0.22   0.09  -0.02
   7   7     0.00  -0.00   0.00     0.00  -0.00  -0.00     0.00   0.00  -0.00
   8   6     0.19   0.14  -0.03    -0.00  -0.00  -0.00     0.00   0.00  -0.00
   9   7     0.00   0.01  -0.00     0.00  -0.00   0.00    -0.01   0.00   0.00
  10   6     0.00   0.00  -0.00     0.00  -0.00   0.00     0.01  -0.01   0.00
  11   7     0.00  -0.00   0.00    -0.00   0.00   0.00    -0.00   0.00  -0.00
  12   7    -0.00  -0.00   0.00    -0.00   0.00  -0.00    -0.00   0.01  -0.01
  13   1     0.08  -0.08   0.12     0.08  -0.09   0.12     0.00  -0.00   0.00
  14   1    -0.07  -0.11  -0.14    -0.02  -0.03  -0.04    -0.00  -0.00  -0.00
  15   1    -0.02   0.01  -0.00     0.88  -0.33   0.02     0.00  -0.00   0.00
  16   1     0.01  -0.01   0.03    -0.07   0.04  -0.15    -0.00   0.00  -0.00
  17   1    -0.00   0.00  -0.00     0.00  -0.00   0.00     0.00  -0.00   0.00
  18   1    -0.00   0.00  -0.00    -0.00   0.00  -0.00     0.87  -0.40   0.14
  19   1    -0.00  -0.00   0.00     0.00   0.00   0.00    -0.00  -0.00  -0.00
  20   1    -0.00  -0.00  -0.00    -0.00   0.00   0.00     0.00  -0.00   0.02
  21   1     0.05   0.04   0.08    -0.00  -0.00  -0.00     0.00   0.00  -0.00
  22   1    -0.75  -0.55   0.04     0.01   0.01  -0.00    -0.00  -0.00   0.00
  23   1    -0.00  -0.00  -0.00     0.00   0.00  -0.00     0.00  -0.00   0.00
  24   1    -0.00  -0.00   0.00     0.00  -0.00  -0.00     0.00  -0.00  -0.00
  25   1     0.00  -0.00  -0.00     0.00  -0.00   0.00     0.02  -0.00   0.00
  26   1    -0.00   0.00  -0.00    -0.00   0.00  -0.00    -0.09   0.05  -0.02
                     67                     68                     69
                        a                      a                      a 
 Frequencies --  3380.2306              3385.2072              3403.4982
 Red. masses --     1.8600                 1.5336                 1.8645
 Frc consts  --     0.0000                 0.0000                 0.0000
 IR Inten    --    87.3318                 3.7740                34.1809
 Raman Activ --     0.0000                 0.0000                 0.0000
 Depolar     --     0.0000                 0.0000                 0.0000
 Atom AN      X      Y      Z        X      Y      Z        X      Y      Z
   1   6    -0.00  -0.00  -0.00     0.00  -0.00  -0.00    -0.00   0.00  -0.00
   2   6     0.00  -0.00  -0.00    -0.00   0.00   0.00     0.00  -0.00   0.00
   3   6     0.00  -0.00   0.00     0.00  -0.01   0.01     0.00  -0.00   0.00
   4   6     0.01  -0.01  -0.01     0.00   0.00   0.00     0.00  -0.00  -0.00
   5   8     0.21  -0.10   0.04    -0.01   0.00  -0.00     0.02  -0.01   0.00
   6   8     0.02  -0.01   0.00    -0.00   0.00  -0.00     0.01  -0.00   0.00
   7   7     0.00  -0.01   0.00     0.02  -0.16   0.12    -0.00  -0.00   0.00
   8   6    -0.00  -0.00   0.00     0.00   0.00   0.00    -0.00  -0.00   0.00
   9   7     0.00  -0.00   0.00    -0.00  -0.00   0.00     0.00   0.00  -0.00
  10   6    -0.00   0.01  -0.00     0.00  -0.00   0.00    -0.01  -0.01  -0.00
  11   7     0.00  -0.00   0.00     0.00   0.00   0.00     0.00  -0.01  -0.00
  12   7     0.02  -0.01   0.00    -0.00   0.00  -0.00    -0.24   0.07  -0.06
  13   1    -0.00   0.00  -0.00    -0.00   0.00  -0.00    -0.00   0.00  -0.00
  14   1     0.00   0.00   0.00    -0.00  -0.00  -0.00     0.00   0.00   0.00
  15   1    -0.00   0.00  -0.00    -0.00   0.00   0.00    -0.00   0.00  -0.00
  16   1     0.00  -0.00   0.00    -0.00  -0.00  -0.00     0.00  -0.00  -0.00
  17   1    -0.00   0.00  -0.00    -0.00   0.00  -0.01    -0.00   0.00  -0.00
  18   1    -0.09   0.04  -0.01     0.02  -0.01   0.00    -0.02   0.01  -0.01
  19   1     0.00   0.03   0.02     0.00   0.46   0.33     0.00   0.00   0.00
  20   1    -0.00   0.01  -0.03    -0.09   0.16  -0.78     0.00   0.00  -0.00
  21   1     0.00  -0.00   0.00    -0.00  -0.00  -0.00     0.00  -0.00   0.00
  22   1     0.00   0.00  -0.00     0.00  -0.00  -0.00     0.00   0.00   0.00
  23   1    -0.01   0.00  -0.00    -0.00   0.00  -0.00    -0.00   0.00  -0.00
  24   1     0.00  -0.00  -0.00     0.00  -0.00  -0.00    -0.01   0.02   0.00
  25   1    -0.09   0.02  -0.02     0.00  -0.00   0.00     0.90  -0.23   0.24
  26   1    -0.85   0.43  -0.14     0.04  -0.02   0.01    -0.08   0.04  -0.01
                     70                     71                     72
                        a                      a                      a 
 Frequencies --  3411.6366              3457.5384              3509.5716
 Red. masses --     2.0549                 1.4700                 2.1426
 Frc consts  --     0.0000                 0.0000                 0.0000
 IR Inten    --     1.5452                 2.0657                 0.5267
 Raman Activ --     0.0000                 0.0000                 0.0000
 Depolar     --     0.0000                 0.0000                 0.0000
 Atom AN      X      Y      Z        X      Y      Z        X      Y      Z
   1   6    -0.00  -0.00  -0.00    -0.00  -0.00  -0.00    -0.00   0.00  -0.00
   2   6    -0.00  -0.00  -0.00    -0.00   0.00   0.00    -0.00   0.00  -0.00
   3   6     0.00  -0.00  -0.01     0.00   0.00   0.00    -0.00   0.00   0.00
   4   6    -0.00   0.00  -0.00     0.00   0.00  -0.00     0.00  -0.00  -0.00
   5   8    -0.00   0.00  -0.00    -0.00   0.00  -0.00    -0.00   0.00  -0.00
   6   8     0.00  -0.00   0.00    -0.00   0.00  -0.00    -0.00   0.00  -0.00
   7   7    -0.02  -0.14  -0.25    -0.00   0.00  -0.00     0.00  -0.00  -0.00
   8   6     0.00  -0.00  -0.00    -0.00  -0.00   0.00     0.00  -0.00   0.00
   9   7     0.00   0.00   0.00    -0.00   0.00  -0.00    -0.00   0.00   0.00
  10   6     0.00  -0.00  -0.00     0.00   0.00   0.01     0.01  -0.01   0.00
  11   7    -0.00   0.00   0.00     0.12   0.10   0.11     0.20  -0.22   0.01
  12   7    -0.00   0.00  -0.00    -0.00  -0.00  -0.00     0.00  -0.00   0.00
  13   1    -0.00  -0.00   0.00    -0.00   0.00  -0.00     0.00  -0.00   0.00
  14   1    -0.00   0.00   0.00    -0.00   0.00   0.00     0.00   0.00   0.00
  15   1    -0.00   0.00  -0.00    -0.00   0.00   0.00     0.00  -0.00   0.00
  16   1     0.00   0.00   0.01     0.00   0.00   0.00    -0.00  -0.00   0.00
  17   1     0.00   0.00   0.01    -0.00  -0.00  -0.00    -0.00  -0.00  -0.00
  18   1    -0.01   0.00  -0.00     0.00  -0.00   0.00     0.01  -0.00   0.00
  19   1    -0.02   0.67   0.41     0.00  -0.00  -0.00    -0.00   0.00   0.00
  20   1     0.07  -0.14   0.52     0.00  -0.00   0.00    -0.00   0.00  -0.00
  21   1    -0.00   0.00   0.00     0.00   0.00  -0.00    -0.00   0.00  -0.00
  22   1     0.00   0.00   0.00     0.00  -0.00  -0.00     0.00   0.00  -0.00
  23   1     0.00  -0.00   0.00    -0.64   0.23  -0.26    -0.56   0.17  -0.25
  24   1     0.00   0.00   0.00     0.21  -0.60  -0.16    -0.20   0.66   0.20
  25   1     0.00  -0.00   0.00     0.01  -0.00   0.00    -0.02   0.01  -0.01
  26   1     0.01  -0.00   0.00     0.01  -0.00   0.00     0.00  -0.00   0.00
