26
 energy: -39.832382700200 gnorm: 0.000043121109 xtb: 6.6.0 (8843059)
C           -0.84545954351078        2.28952416113828       -0.15223904471453
C           -1.81077970445960        1.27340029526268        0.46640709835416
C           -1.77335329868087       -0.04423524827059       -0.30568173261109
C           -0.37364396837763       -0.68920322347282       -0.10304949285992
O           -0.13661824288957       -1.56888529880461       -1.15400078492718
O           -0.37650412682574       -1.34290407634624        1.11858865804451
N           -2.84817932840757       -0.90988186910955        0.12484153007518
C            0.32507329420768        1.55949386230118       -0.82256385653085
N            0.65501964174031        0.36356943937581       -0.07503392099817
C            1.93647945497264       -0.03581681813610        0.18405430290671
N            2.89968883800603        0.95206524377024        0.24435121650194
N            2.17435750849723       -1.28568976476060        0.35532265397176
H           -1.35560101854237        2.89146051886242       -0.90474831455206
H           -0.47805830941366        2.96290059159196        0.62363149756450
H           -2.83139271699861        1.65221664118119        0.46755399982266
H           -1.52531223691674        1.05746559964127        1.49720647876316
H           -1.90698510784714        0.13348058158505       -1.37702157632440
H            0.51779024641344       -1.72144358123610        1.22036019703001
H           -2.81051570735420       -1.77383199398628       -0.40666709353841
H           -2.69918221543646       -1.15598194848686        1.09931243950437
H            0.04291918243834        1.26195456272459       -1.84066735233377
H            1.19799639106652        2.20569714836623       -0.90468903144157
H            3.77896170727061        0.66132033570117        0.64301065469590
H            2.60751464455164        1.87329526510414        0.52596062855422
H            3.13322131490388       -1.49280033994902        0.61052266837121
H            0.72739319824088       -1.98161252168494       -0.98149808056529
